192
Lattice="12.419999746983146 0.0 0.0 0.0 12.419999746983146 0.0 0.0 0.0 12.419999746983146" Properties=species:S:1:pos:R:3:forces:R:3 energy=-30040.470480618005 overall_charge=0.0 pbc="T T T"
O       24.74140002      15.86250018       6.38385999       1.99095700       0.01938609       0.29135705
H       25.50019992      16.52650010       6.26847978      -1.35692374      -0.44670291       0.02041453
H       25.13879994      15.23860025       7.03860989      -0.88152735       0.06900832      -0.52866958
O        5.11872005      -0.16914409     -25.35620022      -0.14866100       0.50552968      -0.85381089
H        4.69995989      -0.57574798     -26.16540002       0.48506373      -0.09847313       1.70386797
H        4.92271016      -0.61233476     -24.51369983      -0.07348204      -0.41718669      -0.69332283
O        1.24207999       9.33831986       2.28750026       0.54713008       0.37754032       0.07106520
H        1.75607987      10.17630002       2.39132006      -0.51550555      -1.49941410      -0.08479488
H        1.76459009       8.54621989       2.60042021      -0.49704505       1.30730151      -0.00318816
O      -14.04949989      12.56769999       4.06461016      -0.16691581       0.22841652       0.05769548
H      -13.55880022      13.30590008       3.66491996      -0.00107986      -0.23366157      -0.06402039
H      -13.80610007      11.72230023       3.65109997      -0.05260471       0.47364804      -0.02324274
O        9.86024998       2.53480011      14.33510001      -0.58533663       0.57248113       0.17704595
H       10.29269995       2.43628002      13.48120008      -0.34411602       0.23957510       0.00215972
H        9.05382995       3.08511002      14.19869982       0.79945783      -0.72073075       0.04067480
O       -0.93830898      -0.65636019      18.90320006      -0.77693500       0.78680802      -0.00663344
H       -1.23989978      -0.12152978      18.07910021       1.08320443      -1.60148677       0.85946731
H       -0.24173397      -1.31992989      18.74819982      -0.08037259       0.58363970      -0.73291777
O      -12.64110004       8.74640022      -3.50710979      -0.19710053       3.08727404      -2.44979550
H      -12.69549999       8.04131974      -2.93759023       0.70103613      -2.40773231       1.81704779
H      -11.73399981       9.01284994      -3.73449989      -0.35224070      -0.86198699       0.42798531
O      -21.99680019      18.11860012       8.73441012       0.10191840      -0.30770925      -0.02643091
H      -21.88630005      17.20439992       9.04250980       0.34128781       0.72613006      -0.10356391
H      -21.16070020      18.62180002       8.82937997      -0.35100657      -0.45436479       0.20764204
O       17.76050008      10.65659977       1.98666989       1.75457006      -0.29752769      -0.05065067
H       18.59909990      11.06420011       2.33604010      -1.08130182      -0.09039988      -0.04149755
H       18.16340026       9.94350014       1.44733989      -0.65840729       0.45637025       0.20368254
O       15.19499975      13.03990016       6.22814007      -0.61397868      -0.23983221       0.67234265
H       15.48869998      13.82599978       5.74676026      -0.45662736       0.18367938       0.08890864
H       14.39639990      13.25900016       6.79943978       1.34124003      -0.22276010      -0.66072128
O       25.23430002       7.61008000      -7.64213015      -1.40068386       0.25361330       0.39481812
H       24.29489987       7.83203016      -7.32963990       1.28143624      -0.61320735      -0.06911117
H       25.16160006       7.28379992      -8.54455986       0.03620109       0.04730824       0.23078194
O        9.13210003       1.94956981      -3.71324019      -1.03713032      -1.13704326       0.68129008
H        8.54128002       1.27987012      -3.25743023       0.80007490       1.05631072      -0.63393042
H        8.97774009       1.87862990      -4.66693024       0.09168543      -0.03429847       0.18861590
O       -3.12483006      10.70139992      20.32400012      -0.47879024      -0.18897585       0.01074720
H       -3.00037022      10.97859987      21.24510026       0.27454206      -0.08937144      -0.58255984
H       -2.38306014      10.99389997      19.76920015       0.33799681       0.24127202       0.55304361
O        5.04223013       7.72031979       9.24181010      -1.08454140       0.00061706      -3.76517026
H        5.74342009       7.36413008       8.61521984      -0.25973252       0.49318840       1.48804984
H        5.26863013       7.56927991      10.11379995       1.05440811      -0.53442885       2.38387250
O       -6.80952008      14.14240013       3.16050983       0.38890459       0.05980379      -0.62524010
H       -7.29205985      14.58519974       3.86715985      -0.13200027      -0.15318614       0.38422518
H       -5.97147007      13.77770019       3.45538007      -0.13997068      -0.33177474       0.24410023
O        7.99237985      25.25680010      11.03619975      -1.02453193       0.31598819      -0.47020277
H        8.54501019      24.60620001      11.45599974      -0.10186698      -0.24111776       0.27202238
H        7.05184991      25.03529975      11.22580024       0.96076865       0.00766188       0.14722119
O        8.40048025      19.87339990      12.12970001      -1.28251610       0.05980379       0.35234354
H        8.85026977      20.03439995      11.29790011       0.13755385       0.12541826      -0.36319359
H        7.52278005      20.35859984      11.98140021       1.33959452      -0.31321140       0.51612261
O       16.09210011      -9.73604998      17.23800003       0.51324298       1.72736782       0.92266495
H       15.53959995      -9.22123993      16.64849979      -0.55988274      -0.34447598      -0.87221996
H       16.32670025      -9.00707979      17.84940026       0.42561989      -0.56271095       0.02015742
O        5.06569014       5.07794006      -6.02443013      -0.06201493       0.43281897      -0.59058167
H        5.96806005       5.10191020      -6.38316994      -0.12212725      -0.28837458       0.41950068
H        4.70342018       5.92304983      -6.33510001      -0.17452627      -0.17858861       0.23520423
O       13.67609975      17.03370005     -11.98810012      -0.48737772       0.36478767       0.51889940
H       13.29399994      17.37400016     -11.14959978      -0.00154266      -0.60451703      -1.12542189
H       12.97159978      16.50739998     -12.44050007      -0.01640362       0.26338348       0.52980087
O        7.73247975      -0.57236389      15.65169979      -1.80115839      -0.26430908       1.29681142
H        8.47691990      -0.28596525      15.19310000       1.94220894       0.59181580      -1.73369273
H        7.97960022      -0.43997010      16.57599986      -0.37774601      -0.35861703       0.17036109
O        9.75302016      11.12059981      13.53039981       1.45961347      -0.39538376       1.37240176
H       10.17030020      10.59549991      14.30310013      -0.94976434       1.25197143      -2.09590930
H       10.39930005      11.85129988      13.33540012      -0.49395973      -0.59181580       0.54856990
O       10.47600006      -4.51323019      -6.28489009      -0.05954668      -0.70556126       0.40685086
H       10.58210009      -4.21559023      -5.37328021       0.21628093       0.44618869      -0.18306232
H       10.36640005      -5.48587007      -6.14170003       0.01758632       0.49982184      -0.36807868
O       25.54920015      13.56309978       7.86229010      -0.82069512       0.10058143       0.84316653
H       25.31960021      13.83349981       8.78376013       0.24939670      -0.26240647      -0.82234062
H       24.82180003      12.95640023       7.59143021       0.39553802       0.27042830      -0.13523986
O       15.09299978      -3.25369000      -4.30461001      -0.58816484       1.01260202      -0.79878935
H       15.85470011      -3.79726983      -4.43200995       0.67928462      -0.85118837       0.09250818
H       15.01200021      -2.80638021      -5.17872980      -0.29212838      -0.07985837       0.82012948
O        8.09047025      -7.76720013      11.82169982      -0.21694942      -1.21613030       1.16481114
H        8.14555019      -6.81658989      11.92859997       0.05044498       0.63660436       0.38401950
H        7.79487980      -8.17639011      12.67689994       0.19766617       0.72900969      -1.06618375
O       -2.08631026      -7.23652005      19.13639999      -0.13153748      -0.19982589      -1.35347846
H       -1.42921980      -7.91187982      18.84530013      -0.07301924       0.17745732       0.34565868
H       -2.11259026      -7.31413977      20.07789991       0.04504567       0.04273168       1.47776544
O       16.46020002      20.17850020      25.25469980       0.25782991      -0.26682876       0.20383681
H       15.78830001      20.63480018      24.74280022      -0.20980176       0.08232662      -0.37532918
H       16.37119982      19.20099982      25.11450012      -0.13004624       0.45683305       0.29891609
O        7.19713022     -21.10500006      14.43510022       0.84542910       1.61207970      -0.14948375
H        6.70453979     -21.80419980      14.85810014      -0.41482127      -0.07872708       0.37255239
H        7.24976007     -20.28229990      15.00410013      -0.43312751      -1.10829837      -0.56841879
O       -8.60801985      -7.30229995      12.99570010       1.35887777      -1.22446066       0.86388960
H       -9.37878022      -7.82533024      13.32030005       0.66591490       0.63120505      -0.70535557
H       -7.79477978      -7.83505017      13.22560008      -1.55721243       0.86790052      -0.51622546
O       15.41479985      23.68489984      16.31989979      -0.20198562       0.23803244      -0.24610569
H       15.81709995      24.45149981      16.77299984      -0.02920770      -0.88708092      -0.38525362
H       16.05940014      23.03909991      16.00229980       0.47879024       0.78130587       0.16676155
O       24.11199982      13.10359986       0.59186407      -0.26096665      -0.19283250       0.12372133
H       24.49859976      13.62390013       1.29646988       0.16563026      -0.10598074       0.00550215
H       24.84490020      12.68289975       0.11839917       0.34555584       0.19694626       0.12007037
O      -17.16109999      11.95329984      -6.45836020      -0.33856245      -0.61408152       0.15462595
H      -18.09789976      12.02780006      -6.23478018      -0.15544871       0.32673539       0.20810483
H      -16.84199979      11.28979999      -5.82567011       0.42942512       0.25597872       0.24507725
O        2.57339989      21.95509997      11.15550011      -2.62617296       0.15478022      -2.13324167
H        1.56567026      21.76779981      11.28290005       2.41853093       0.28827173      -0.31244007
H        2.66955985      22.03159994      10.13489984      -0.18270237      -0.38895601       2.42223331
O       10.30309987      10.45249983      10.73490001      -0.04859379       0.39168137      -0.24744266
H       11.16189998      10.03279986      10.80719990       0.19566071      -0.10680349       0.08212093
H       10.03140018      10.58379981      11.65510002      -0.01372967      -0.30123008       0.15848260
O      -10.69319979      12.28440020      11.94100018       0.09420510      -1.68612738      -0.58168566
H      -10.31180007      13.07190003      11.54089987       0.17478338      -0.36077675      -0.39666931
H      -10.36489983      11.44299997      11.47789974      -0.30410971       1.90143129       0.92775572
O       -8.06983022      14.75230015      25.55499993       0.55350641      -0.14562710       0.85643341
H       -7.49774997      14.52900007      26.31960014      -0.26970839       0.36900427      -0.18933580
H       -7.76997989      14.07710019      24.94280010      -0.03794944      -0.51668826      -0.61999505
O       24.15090017      17.24680024       2.83678991       0.12099597      -0.96724782       0.45333635
H       23.47369992      17.70920005       2.35293990      -0.46567763       0.28122692      -0.23669547
H       23.89979976      16.29030026       2.91172987       0.19720337       1.12634749      -0.27068541
O        6.28763017      -3.36425999      -0.49418696      -0.18532489      -0.53525160       0.52476151
H        6.13981986      -2.76404021      -1.22094994      -0.27978710       0.28755182      -0.35650873
H        5.44247013      -3.80105980      -0.25493006       0.05522723       0.13009766      -0.11724216
O      -17.74379978       4.03029989      -2.86558985       1.75976368      -1.34463388      -1.94524284
H      -17.40109985       4.20836009      -1.97879997      -0.13842802       0.35666299       1.12917570
H      -16.95340006       3.50157989      -3.21119019      -1.45128311       0.91094073       0.33306029
O       11.07039995      -2.57587009       3.42553977       1.34879906      -0.18028553       0.66457793
H       10.70960005      -2.75394986       4.28797003      -0.97928057      -0.13765669       0.46207809
H       12.02299989      -2.66357010       3.66363988      -0.43461874      -0.00226257      -1.07939920
O        2.02242005       4.83455982       3.26493978      -0.43050498      -0.16218499       1.41425927
H        2.00312995       5.13317981       4.19441997       0.44505741      -0.17493764       0.03573829
H        1.05810994       4.65544974       3.21323017       0.20476240       0.00380523      -0.68879769
O        9.89342993      -5.40220980      14.52160005      -0.57782901       0.59747222      -1.16707371
H        9.44801988      -5.11614983      13.65889991       0.56857305      -0.44366902       1.04911164
H       10.39479993      -4.62458019      14.80549992      -0.29819618      -0.21561245      -0.06196351
O      -14.40669980      -6.84674982       9.63211005       2.84147688      -0.53252623      -0.00658202
H      -13.40140016      -6.72481998       9.72986019      -2.16275790      -0.13189743      -0.17360067
H      -14.75930010      -5.95365003       9.70375006      -0.32277589       0.48393244       0.01768917
O       15.23519975      -5.05966017      15.61999996      -0.05219333       0.76737051       0.73034667
H       15.17009984      -6.01801015      15.53770020      -0.23325019      -0.29721916      -0.41944925
H       15.67049987      -4.74295978      14.84010017       0.97233860      -0.20157424      -1.00961955
O        7.06255992     -29.27800026       5.54387001       0.01984889       1.19710416      -1.53870051
H        7.29743999     -28.33249976       5.40084982      -0.12567537      -1.16208578       0.42253457
H        7.07110984     -29.64660024       4.62761978       0.37419789      -0.04144613       0.73132368
O        1.55211010      30.29900007       6.05492026      -0.27536481       1.50733309      -0.53869687
H        2.10114997      30.53929997       6.81025987       0.08299511      -0.04134329       0.23453574
H        1.05486979      31.14580002       5.79743004       0.64385486      -1.19787549       0.17385778
O        7.45341974       6.13005019       3.46303991       1.02036675      -0.46886580       0.36026253
H        7.70929015       5.64698019       4.30670026       0.01748348       0.70962360      -0.93721737
H        8.28673996       6.38835006       2.97808975      -0.72114213      -0.18049122       0.87674510
O        7.26453999       6.79080996       8.08956007       0.55288934       0.87247707       2.27532066
H        7.02251020       6.54798007       7.23254011      -0.07389341      -0.77590656      -1.97162232
H        7.45591004       6.00408009       8.61556010      -0.30087012      -0.35666299      -0.33228896
O        5.21501019      12.47400016       7.46854997       0.27577619      -0.32272447      -0.19360383
H        5.20003024      13.28750006       7.98007013       0.15303187       0.60045469       0.09343377
H        4.38269011      12.53429991       6.97727984      -0.48480662      -0.08263515      -0.00339385
O       20.24219991      -7.59618011      18.36909991       1.07698237      -2.06027385      -0.70088186
H       21.22680025      -7.57959993      18.65170012      -1.24538942       0.49776496      -0.23494712
H       20.14699987      -8.57106000      18.15029995       0.16285347       1.44238710       0.47519070
O        8.63681979      14.42259999       5.69517024       1.30894701       1.62308401      -0.92297348
H        8.43300983      13.50839979       5.85415995      -0.35846276      -1.19103636      -0.08217236
H        9.37579989      14.44779994       5.04224018      -1.01337335      -0.21314419       0.87571666
O       -0.93183979       3.60038998      -0.64319691      -0.61346446      -0.25885835      -0.77950610
H       -1.43319022       4.14241984      -1.28282981       0.14033064      -0.18717608       0.60210020
H       -0.97365696       2.70652976      -1.03585010       0.15575724       0.18244526       0.14336454
O        5.00413995       2.65056980       8.66297014      -0.04900517      -1.63100300       0.91870545
H        5.83712997       3.04057976       8.96853982       0.28199825       0.55180948       0.42767677
H        4.62147021       3.27697009       8.09612980      -0.42988792       1.27475138      -1.32740751
O        4.94661998      10.71169982      -2.81189000      -0.10366675      -0.85761612       1.92272000
H        5.11438979      11.35250009      -3.46802000       0.31172016       1.16367986      -1.73256145
H        4.58026001       9.95478009      -3.25580989      -0.03111031      -0.31058888      -0.17401205
O      -11.53860007      -5.95540002     -14.21130006      -0.19355241      -0.67491375       0.36031395
H      -10.83360003      -6.26333988     -14.80020021       0.08165814       0.51514560      -0.38124271
H      -11.46109995      -6.60222020     -13.48399996      -0.07677305       0.24811115       0.17077246
O        2.67632009      14.95039975      -1.84093978      -0.98303437      -0.28621485       0.00185119
H        2.94654020      15.06869996      -0.93768985       0.12881211       0.46526626       0.53576582
H        3.43964975      15.17369984      -2.35114017       1.02406913      -0.20666502      -0.52270463
O       16.75250004       8.10990005       5.61450988      -1.11169222      -0.08083538      -0.71754259
H       16.23349997       8.12629978       4.78449013       0.14249036      -0.31321140       0.69651099
H       17.66170005       8.10128981       5.31246981       0.58435961       0.11364262       0.37147253
O       24.94119987      14.85810014      -8.79040025       0.24106634      -0.80238889      -1.22132392
H       25.06849980      14.93800007      -7.85752009       0.05635851       0.24266042       1.11086947
H       25.79149981      14.55349991      -9.17606989      -0.21016171       0.09939873       0.16012811
O       14.85490020       1.43788984      14.96939986      -0.06864837      -0.38983018      -0.21813212
H       14.89579978       0.47088675      14.87779982       0.11724216       0.71599993       0.00082275
H       15.49420025       1.81352999      14.33300023      -0.41070751      -0.32565553      -0.05301608
O      -11.02659995      10.19019991       5.68310977      -0.69471122       0.03481269       1.07723948
H      -10.46789994      10.64319995       5.03113011       0.18697039      -0.25669862      -0.18321659
H      -11.08029979       9.24845022       5.51267978       0.03686957      -0.05697558      -0.59788359
O       12.22059995      -3.68270984     -12.67329994      -0.01100431      -0.13272018      -0.85854171
H       12.66579992      -3.54868989     -11.83649985       0.26554321      -0.07954983       0.48249263
H       12.49200013      -4.53219008     -13.05609986       0.08422924       0.27490201       0.39229844
O        9.19171978      -4.44809006       9.62465024       0.84126392       1.67682000      -1.74839942
H        9.75113999      -3.60110013       9.66354000      -1.43950747      -1.52713056      -0.18522204
H        8.71565026      -4.48279985       8.73427995       0.65804733       0.17509191       1.78048675
O       23.87459981       1.30178017      22.57000018      -1.43230839      -1.31501481      -1.56286885
H       24.15899975       0.37615610      22.62010004      -0.09039988       0.42443719       0.47971584
H       23.01180018       1.20699025      22.03380026       1.63902483       0.88060175       0.96035727
192
Lattice="12.419999746983146 0.0 0.0 0.0 12.419999746983146 0.0 0.0 0.0 12.419999746983146" Properties=species:S:1:pos:R:3:forces:R:3 energy=-30039.796182126 overall_charge=0.0 pbc="T T T"
O       21.37580015      13.02530016       1.64772025       0.13436569      -0.69717948       1.22050117
H       21.29440000      13.39659999       0.78931014      -0.05671847       0.81071925      -1.29238913
H       21.95900001      13.61539995       2.14387998       0.31321140       0.17689168       0.17987416
O        6.04481985       0.92847581     -13.71989975       2.00844048      -1.19221907      -0.59212433
H        5.93812026       1.24417024     -14.61929992       0.05116489       0.42412866      -0.53900540
H        5.26065014       1.15084984     -13.26160001      -1.57140490       0.54409618       1.00566005
O        0.89960920       9.83643013       0.71959105      -1.46958934       2.22909228       0.88327569
H        1.60563002       9.25967989       0.90755797       1.47791970      -1.55911504       0.20522520
H        0.79710492      10.35409985       1.55340023      -0.10027290      -0.76078849      -1.05132279
O       -9.64737999      13.85410015       6.26163011      -0.77672931      -0.30462393      -0.39270981
H      -10.58869999      13.59979981       6.13062012       1.10161351       0.36540473       0.20188277
H       -9.46668978      13.67080004       7.19470976      -0.20517378      -0.18100544       0.04473714
O        7.04954005       7.37128985      12.74390012      -0.45595887       0.51802523      -0.35126368
H        7.61780017       6.78576002      13.21530018       0.47570492      -0.47524212       0.53931394
H        6.86012001       8.11369002      13.34690020      -0.16850989      -0.18568484      -0.13405715
O       -9.10305984       3.98705024       6.05301998      -1.53967752       1.12490767      -0.68602090
H       -9.47586995       3.08080992       6.08355986       0.14938091       0.15205485       0.11343693
H       -9.89442002       4.54009017       5.78096998       1.50363070      -0.95979163       0.59587814
O      -13.98029992       8.47522018      -3.58136976      -1.64185304      -0.12696092      -0.15555155
H      -14.60320024       7.78144981      -3.90788004       1.16239431       0.70556126       0.57649204
H      -13.10379989       8.22430023      -3.83100011       0.39430390      -0.42628838      -0.32503846
O      -13.93609986      14.85400007       8.99744983       0.86856900      -1.77935547       0.80388013
H      -13.50469978      14.47750001       9.81500004      -0.86481520       0.78397981      -1.05343109
H      -14.04139978      15.79670017       9.12670983       0.18799883       0.96771062       0.23098762
O       18.71320004      13.68129998       1.76732012      -1.10361896       0.70957218       1.56646839
H       19.53870008      13.23589999       1.93509999       0.93325788      -0.32832947      -0.27613614
H       18.42980024      13.90580024       2.69065974      -0.22378854      -0.39142426      -1.17098178
O       17.59210002      11.51239998       7.55288018       1.21155374       0.19998016       1.18352875
H       17.94169988      11.12600007       8.39307018      -0.51437427       0.25207064      -1.11025240
H       16.63970010      11.37390001       7.53222004      -0.34668712      -0.29860755      -0.23186180
O       13.25979975       5.02112019      -3.61627006       1.16902775       2.56312959      -0.23885519
H       13.59440008       5.94747982      -3.88888998      -0.40119444      -1.92410840       0.70905796
H       12.83230023       4.80128992      -4.43586025      -0.20234557      -0.78254000      -0.67995311
O       17.23440003       4.34341987      -3.77144016      -1.03954715      -0.79246444      -1.00226620
H       17.70970012       3.48050012      -3.90937020      -0.46490630       0.64652881       0.26919417
H       16.40240011       4.23882006      -4.32281000       1.49499181       0.25829271       0.35105799
O      -10.29219988      12.01420020      28.32909980       1.20867411      -0.97079594      -1.03059972
H      -10.03999984      11.55959994      29.13760002      -0.06078080       0.21612667       0.03105889
H       -9.63928992      11.61220015      27.64269981      -0.91490022       0.85427369       1.10583011
O        3.21356990       8.10787013       0.88565215       0.31357136      -0.73327772       0.25695573
H        3.73106976       8.55153018       0.20198112       0.06474030      -0.06900832      -0.13837660
H        3.47118025       7.15567024       0.83723190      -0.16696723       0.79801802      -0.00987302
O       -6.23005992      16.67799983       4.37810003      -1.23649341      -0.24723698       3.57382900
H       -6.26782995      16.35359991       3.52256018      -0.11102010      -0.91135211      -2.72757715
H       -6.94058987      16.18489981       4.89813993       1.22888296       1.04957444      -1.02813147
O       10.45639986      21.22329975      12.09410014      -1.17833513      -0.79313293      -0.56415076
H       11.33890023      21.47579983      11.81940002      -0.01568371      -0.11251134      -0.20635649
H        9.95473987      20.82350001      11.33020003       1.16116018       0.89967931       0.84635470
O       -0.10706102      18.85099990      11.17090022      -0.65197954      -0.08294369       0.33321456
H       -0.82900426      19.10709997      11.76610023       0.35152079       0.03059609      -0.32020479
H        0.18938088      19.66980003      10.73850000       0.19360383      -0.07204222       0.29814476
O       13.69489983     -16.17519999      22.59309983       1.50496767      -3.24364834       0.15534586
H       13.28329998     -15.36190012      22.53380023      -1.22955144       2.89845245      -0.61130474
H       13.96189990     -16.47049992      21.70390008      -0.20995603       0.20645933       0.00745619
O       -0.87643123       4.60279026       3.19142013      -1.69142385      -0.54759288      -1.88163382
H       -0.52602596       4.76119998       4.04535022       1.20394329       0.34900111       1.52065138
H       -0.24502492       4.60246005       2.46085977       0.94570200       0.02452829       0.34355038
O       15.34829974      14.79849996      -9.64925010       0.24764835       0.53807981      -0.29572792
H       15.19969990      13.90450005      -9.35124977      -0.10582648      -0.48686350       0.35260065
H       16.04030002      15.14290013      -9.07343015      -0.34941249      -0.16676155      -0.35121226
O        2.59060979      -1.47028978       7.05213990       0.03203591       0.28960870       0.96580800
H        2.37903998      -1.84744019       7.91676995      -0.06479172       0.08942286      -0.46408355
H        2.11335015      -2.01918995       6.40701996      -0.16537315      -0.33989942      -0.04710255
O       10.55750023       5.10606001       9.29077011      -0.93675457       0.03594398       1.74515984
H       11.36549985       5.38660013       9.82223019      -1.32941297      -0.17704595      -0.46542052
H        9.71593013       5.08576977       9.88408995       2.08253958       0.24420308      -0.84054401
O       11.85390025       2.47124011      -0.74111692      -0.04627980      -0.02313990       2.32370876
H       11.88399985       3.43049975      -0.90612707       0.23119331      -0.68818063       0.75348657
H       11.94589983       2.31026017       0.27528698      -0.15586008       0.83231649      -3.20580175
O       18.89499993      22.92760015      10.23110002       0.36057106       1.08706108       0.07322493
H       18.77610016      23.81709995      10.62159999      -0.01563229      -0.43508154       0.08983423
H       18.03999984      22.50239991      10.35819992      -0.50054175      -0.42073480       0.15550013
O       17.42870015     -11.05250000      -7.96890025       0.16048806      -0.60816799       1.46516705
H       18.02179985     -11.70360017      -7.51652994      -0.72787841       0.71713121      -0.55777443
H       16.65309993     -10.96719981      -7.35206008       0.75312661      -0.35434900      -0.68437540
O       -2.13077014      -6.33172016      13.56140006      -0.26461761       0.23967794      -0.85288529
H       -1.94667997      -6.81020007      14.38879986       0.03995489       0.84568621       0.12315569
H       -2.16378974      -5.35753984      13.63050002       0.17802296      -0.91813981       0.52013353
O        3.94547014     -15.24659982      23.24820005      -0.71965089       0.45205080       0.91747132
H        3.24898985     -15.82610019      22.90449998       0.20481383       0.21540676      -0.00164550
H        3.39098979     -14.51410002      23.67429989       0.64046101      -0.78058596      -1.07703379
O       14.79210010      13.37260022      21.37809996       0.67943889      -0.08021832      -0.21597240
H       13.84559998      13.46680011      21.32730000      -0.11590519       0.43194480       0.55870003
H       15.08339998      13.29639976      22.29429992      -0.63171927       0.08458919      -0.23273597
O        9.02089979     -16.83750019      16.46520021       0.56065407       0.49529670       0.08412639
H        8.63299014     -16.14750021      15.92249988      -0.35311487      -0.11019735       0.05332461
H        8.37841991     -17.51650017      16.68159982      -0.22476556      -0.03111031       0.10628927
O      -11.63909982      -7.82812006      13.37890007       0.29094568      -0.58399965       0.47056272
H      -10.66389977      -7.86970016      13.33789995      -1.01162501       0.46125534      -0.03080178
H      -12.00819986      -7.02271023      13.01279993       0.75158395       0.20106002      -0.44747424