LAMMPS (14 Dec 2021)
OMP_NUM_THREADS environment is not set. Defaulting to 1 thread. (src/comm.cpp:98)
  using 1 OpenMP thread(s) per MPI task
#########################################################################################################
# LAMMPS input file template
#########################################################################################################
# Units metal : eV       - ps - angstrom - bar
#       real  : kcal/mol - fs - angstrom - atm
#########################################################################################################

units metal


#########################################################################################################
# 3D periodic simulation
#########################################################################################################

boundary p p p

#########################################################################################################
# Atom style - charge/vdw/bonded
#########################################################################################################

atom_style full

#########################################################################################################
# Read the input structure
#########################################################################################################

read_data coord.lmp
Reading data file ...
  orthogonal box = (0 0 0) to (18 15.588 21.96)
  2 by 1 by 2 MPI processor grid
  reading atoms ...
  576 atoms
  scanning bonds ...
  2 = max bonds/atom
  scanning angles ...
  1 = max angles/atom
  reading bonds ...
  384 bonds
  reading angles ...
  192 angles
Finding 1-2 1-3 1-4 neighbors ...
  special bond factors lj:    0        0        0       
  special bond factors coul:  0        0        0       
     2 = max # of 1-2 neighbors
     1 = max # of 1-3 neighbors
     1 = max # of 1-4 neighbors
     2 = max # of special neighbors
  special bonds CPU = 0.000 seconds
  read_data CPU = 0.010 seconds

#########################################################################################################
# Force field include
#########################################################################################################

include ff-tip4pice.lmp
##############################################################################################
#### Atoms types - mass - charge
##############################################################################################
#@ 2 atom types

variable OT   equal 1
variable HT   equal 2

##############################################################################################
#### Atom masses
##############################################################################################

mass ${OT}     16.
mass 1     16.
mass ${HT}      1.
mass 2      1.

##############################################################################################
#### Atom charges not set in lammps input
##############################################################################################

set type ${OT}  charge    -1.1794
set type 1  charge    -1.1794
Setting atom values ...
  192 settings made for charge
set type ${HT}  charge     0.5897
set type 2  charge     0.5897
Setting atom values ...
  384 settings made for charge

##############################################################################################
#### Covalent bond parameters
##############################################################################################
#@ 1 bond types

bond_style harmonic
#@ HT - OT
bond_coeff    1    100.        0.9572

##############################################################################################
#### Covalent angle parameters
##############################################################################################
#@ 1 angle types

angle_style harmonic
#@ HT - OT - HT
angle_coeff     1     50.      104.52

##############################################################################################
# Pair potentials - TIP4P Ice
##############################################################################################

pair_style lj/cut/tip4p/long 1 2 1 1  0.1577 10.
pair_modify mix arithmetic
pair_coeff  ${OT}    ${OT}     0.009143        3.1668
pair_coeff  1    ${OT}     0.009143        3.1668
pair_coeff  1    1     0.009143        3.1668
pair_coeff  ${HT}    ${HT}     0.0000000000    0.000
pair_coeff  2    ${HT}     0.0000000000    0.000
pair_coeff  2    2     0.0000000000    0.000


#########################################################################################################
# Parameters for neighbor list and reciprocal space electrostatics
#########################################################################################################

neighbor 1. bin

kspace_style pppm/tip4p 1.0e-5
kspace_modify fftbench no

#########################################################################################################
# Groups' definitions
#########################################################################################################

group tip4p type ${OT} ${HT}
group tip4p type 1 ${HT}
group tip4p type 1 2
576 atoms in group tip4p


#########################################################################################################
# Define thermal dynamic output frequency and time steps
#########################################################################################################

thermo 100
thermo_style custom time temp pe etotal press vol density
timestep 1e-3

#########################################################################################################
# Remove the centre of mass motion
#########################################################################################################

fix com all momentum 1000 linear 1 1 1

#########################################################################################################
# Shake
#########################################################################################################

fix shake all shake 0.00001 50 0 b 1 a 1
       0 = # of size 2 clusters
       0 = # of size 3 clusters
       0 = # of size 4 clusters
     192 = # of frozen angles
  find clusters CPU = 0.000 seconds

#########################################################################################################
# Specifications for NVT and NVE simulations
#########################################################################################################

velocity all create 300 253453 mom yes dist gaussian
fix nve all nve

#########################################################################################################
# Trajectory output - whole system
#########################################################################################################

dump dcd all dcd 1000 traj.dcd
dump_modify dcd unwrap yes
dump coords all custom 1000 coords_forces.xyz type id x y z fx fy fz

#########################################################################################################
# RUN MD
#########################################################################################################

print 'Doing Molecular dynamics'
Doing Molecular dynamics
run 100000
PPPM initialization ...
  extracting TIP4P info from pair style
  using 12-bit tables for long-range coulomb (src/kspace.cpp:340)
  G vector (1/distance) = 0.31502011
  grid = 18 16 24
  stencil order = 5
  estimated absolute RMS force accuracy = 0.00012754983
  estimated relative force accuracy = 8.8578452e-06
  using double precision KISS FFT
  3d grid and FFT values/proc = 6992 1728
  generated 1 of 1 mixed pair_coeff terms from arithmetic mixing rule
Neighbor list info ...
  update every 1 steps, delay 10 steps, check yes
  max neighbors/atom: 2000, page size: 100000
  master list distance cutoff = 11.3154
  ghost atom cutoff = 11.3154
  binsize = 5.6577, bins = 4 3 4
  1 neighbor lists, perpetual/occasional/extra = 1 0 0
  (1) pair lj/cut/tip4p/long, perpetual
      attributes: half, newton on
      pair build: half/bin/newton
      stencil: half/bin/3d
      bin: standard
Per MPI rank memory allocation (min/avg/max) = 10.07 | 10.07 | 10.07 Mbytes
Time Temp PotEng TotEng Press Volume Density 
           0          300   -85.612058   -70.760068   -414.14253    6161.6246   0.93138139 
         0.1    372.18885   -94.109933   -75.684115   -1542.3774    6161.6246   0.93138139 
         0.2    382.78457   -94.637144   -75.686768   -106.49371    6161.6246   0.93138139 
         0.3    391.18739   -95.052572     -75.6862   -564.22587    6161.6246   0.93138139 
         0.4    374.36618   -94.217013   -75.683403    784.58767    6161.6246   0.93138139 
         0.5    398.97639   -95.437217   -75.685238     1082.838    6161.6246   0.93138139 
         0.6     401.8082   -95.581585   -75.689412    1242.2879    6161.6246   0.93138139 
         0.7    393.00399   -95.144066   -75.687761    841.40817    6161.6246   0.93138139 
         0.8    368.33691   -93.919926   -75.684805   -651.62241    6161.6246   0.93138139 
         0.9    368.70754   -93.938153   -75.684683   -944.83073    6161.6246   0.93138139 
           1    398.27433   -95.403352    -75.68613    1237.7996    6161.6246   0.93138139 
         1.1    403.09414   -95.641051   -75.685216   -492.48811    6161.6246   0.93138139 
         1.2    405.27412   -95.751491   -75.687733   -1815.8122    6161.6246   0.93138139 
         1.3    377.50072   -94.372718   -75.683927   -674.38574    6161.6246   0.93138139 
         1.4    401.38308   -95.557526     -75.6864    150.99083    6161.6246   0.93138139 
         1.5    412.59049   -96.111667     -75.6857    65.875079    6161.6246   0.93138139 
         1.6    410.89763   -96.029598   -75.687438   -104.72552    6161.6246   0.93138139 
         1.7    409.62979   -95.966915   -75.687522   -2163.2757    6161.6246   0.93138139 
         1.8    397.57348   -95.369443   -75.686918   -1303.5616    6161.6246   0.93138139 
         1.9    394.54492   -95.216921   -75.684329    77.212122    6161.6246   0.93138139 
           2    387.01358   -94.847461    -75.68772   -1360.7874    6161.6246   0.93138139 
         2.1    378.60152     -94.4287   -75.685412     164.6744    6161.6246   0.93138139 
         2.2     390.1111   -94.998876   -75.685788    510.72735    6161.6246   0.93138139 
         2.3    381.14177   -94.552912   -75.683865     1423.731    6161.6246   0.93138139 
         2.4    397.36782   -95.359161   -75.686817   -226.96483    6161.6246   0.93138139 
         2.5    400.38057   -95.512414    -75.69092   -950.48295    6161.6246   0.93138139 
         2.6    405.00354   -95.736346   -75.685984   -550.08881    6161.6246   0.93138139 
         2.7     411.2774   -96.050459   -75.689499     1149.232    6161.6246   0.93138139 
         2.8    386.56789    -94.82271   -75.685035   -585.17426    6161.6246   0.93138139 
         2.9    402.94608   -95.636072   -75.687567   -2313.0021    6161.6246   0.93138139 
           3    390.26039   -95.005751   -75.685272   -1070.7062    6161.6246   0.93138139 
         3.1    416.60049    -96.31493   -75.690442   -508.43684    6161.6246   0.93138139 
         3.2    405.68366   -95.771062   -75.687029    649.67657    6161.6246   0.93138139 
         3.3    404.42002   -95.708674     -75.6872   -1506.4304    6161.6246   0.93138139 
         3.4    396.50843   -95.317765   -75.687967   -2012.1054    6161.6246   0.93138139 
         3.5    391.99619   -95.091416   -75.685003   -316.95529    6161.6246   0.93138139 
         3.6    401.98964   -95.588469   -75.687314    284.58379    6161.6246   0.93138139 
         3.7    403.18158   -95.646925   -75.686761    1854.1377    6161.6246   0.93138139 
         3.8    387.92726   -94.890279   -75.685306   -1191.5116    6161.6246   0.93138139 
         3.9    397.25045   -95.352609   -75.686075    -138.0673    6161.6246   0.93138139 
           4    393.50618   -95.167214   -75.686047    197.11644    6161.6246   0.93138139 
         4.1     407.9547   -95.882913   -75.686449   -1240.2788    6161.6246   0.93138139 
         4.2    403.52171    -95.66687   -75.689868   -397.15226    6161.6246   0.93138139 
         4.3    394.93095   -95.237772   -75.686069    -1283.822    6161.6246   0.93138139 
         4.4    377.91761     -94.3905   -75.681071   -1111.3478    6161.6246   0.93138139 
         4.5    402.18935   -95.597178   -75.686136   -297.37134    6161.6246   0.93138139 
         4.6    410.70039   -96.021097   -75.688703   -1031.0592    6161.6246   0.93138139 
         4.7    368.71451   -93.939761   -75.685947    541.14098    6161.6246   0.93138139 
         4.8    372.32075   -94.120532   -75.688184     711.5597    6161.6246   0.93138139 
         4.9    381.76712   -94.582849   -75.682843    723.72625    6161.6246   0.93138139 
           5    398.81905   -95.431991   -75.687801    205.86567    6161.6246   0.93138139 
         5.1    416.76601   -96.318936   -75.686253    846.11328    6161.6246   0.93138139 
         5.2     428.4487   -96.899876   -75.688823    640.26326    6161.6246   0.93138139 
         5.3    411.80571   -96.075057   -75.687942    555.46547    6161.6246   0.93138139 
         5.4    408.68633   -95.918872   -75.686187    267.68509    6161.6246   0.93138139 
         5.5    392.05415   -95.092933   -75.683651   -1371.9888    6161.6246   0.93138139 
         5.6    377.32342   -94.365764   -75.685751    431.70512    6161.6246   0.93138139 
         5.7    385.56293   -94.772065   -75.684142   -1847.5029    6161.6246   0.93138139 
         5.8    406.80512    -95.82477   -75.685217   -1303.9016    6161.6246   0.93138139 
         5.9    409.64564   -95.962631   -75.682454   -261.73759    6161.6246   0.93138139 
           6    396.29146   -95.306297    -75.68724    910.60253    6161.6246   0.93138139 
         6.1      394.688   -95.227182   -75.687506   -1700.1661    6161.6246   0.93138139 
         6.2    375.38455   -94.269484   -75.685458   -147.67474    6161.6246   0.93138139 
         6.3    391.01619   -95.043817   -75.685921    -691.5613    6161.6246   0.93138139 
         6.4     390.9444   -95.042143   -75.687801    1839.4384    6161.6246   0.93138139 
         6.5    381.02167   -94.548433   -75.685332     127.9081    6161.6246   0.93138139 
         6.6    376.58112    -94.32893   -75.685665   -1126.7506    6161.6246   0.93138139 
         6.7    382.82249   -94.637278   -75.685025   -300.51116    6161.6246   0.93138139 
         6.8    408.45089   -95.909934   -75.688905   -358.89706    6161.6246   0.93138139 
         6.9    406.78896   -95.825729   -75.686976   -557.19891    6161.6246   0.93138139 
           7    375.95921   -94.296799   -75.684324    397.27652    6161.6246   0.93138139 
         7.1    371.16373   -94.061212   -75.686145    262.88709    6161.6246   0.93138139 
         7.2    403.51578   -95.664681   -75.687972    -425.5018    6161.6246   0.93138139 
         7.3    397.99671   -95.391565   -75.688087    508.52567    6161.6246   0.93138139 
         7.4    390.85345   -95.040889    -75.69105   -213.06294    6161.6246   0.93138139 
         7.5    388.68966   -94.931219   -75.688501   -1290.3803    6161.6246   0.93138139 
         7.6     375.2135   -94.262399   -75.686841   -1024.2656    6161.6246   0.93138139 
         7.7    407.23822   -95.849297   -75.688303   -156.68777    6161.6246   0.93138139 
         7.8    407.43631   -95.859608   -75.688807    147.85476    6161.6246   0.93138139 
         7.9    418.31016   -96.401315   -75.692186   -1185.4479    6161.6246   0.93138139 
           8    405.33048    -95.75174   -75.685192    -560.0055    6161.6246   0.93138139 
         8.1    399.90305   -95.487124   -75.689269   -645.07004    6161.6246   0.93138139 
         8.2     407.2846   -95.854478   -75.691187    573.34423    6161.6246   0.93138139 
         8.3    414.46669    -96.20549   -75.686638   -2.7469352    6161.6246   0.93138139 
         8.4     401.2896   -95.555775   -75.689277    355.27598    6161.6246   0.93138139 
         8.5    423.04861   -96.634613   -75.690899   -709.95499    6161.6246   0.93138139 
         8.6    408.23417   -95.901062   -75.690762    1421.9794    6161.6246   0.93138139 
         8.7    412.41898   -96.105233   -75.687757    584.72486    6161.6246   0.93138139 
         8.8    403.29578    -95.65297   -75.687152    2094.7298    6161.6246   0.93138139 
         8.9    399.37485   -95.458922   -75.687216    98.564084    6161.6246   0.93138139 
           9    422.53214    -96.60687   -75.688726   -163.04163    6161.6246   0.93138139 
         9.1    411.43604   -96.056361   -75.687547    1171.5668    6161.6246   0.93138139 
         9.2    406.40432   -95.806063   -75.686352   -520.34623    6161.6246   0.93138139 
         9.3    412.76533   -96.122232   -75.687609   -785.30313    6161.6246   0.93138139 
         9.4    415.82505   -96.272598   -75.686499   -162.17385    6161.6246   0.93138139 
         9.5    404.01343   -95.687018   -75.685672    -2051.641    6161.6246   0.93138139 
         9.6    395.31898   -95.259611   -75.688698   -247.29779    6161.6246   0.93138139 
         9.7    388.72701   -94.931959   -75.687393   -1316.2623    6161.6246   0.93138139 
         9.8    400.89064   -95.537392   -75.690645   -1560.6971    6161.6246   0.93138139 
         9.9    401.27843   -95.555258   -75.689313   -1097.5398    6161.6246   0.93138139 
          10    422.63944   -96.611885   -75.688429   -658.70813    6161.6246   0.93138139 
        10.1    373.29609   -94.165625   -75.684992    483.74655    6161.6246   0.93138139 
        10.2    380.33779    -94.51444   -75.685196    72.060308    6161.6246   0.93138139 
        10.3    367.18433   -93.863324   -75.685263   -979.18919    6161.6246   0.93138139 
        10.4    383.45995   -94.667441   -75.683629   -67.709776    6161.6246   0.93138139 
        10.5    376.85138   -94.341199   -75.684555    763.16724    6161.6246   0.93138139 
        10.6    395.88319   -95.286433   -75.687588    659.31248    6161.6246   0.93138139 
        10.7    399.74723   -95.479412   -75.689271    1221.4839    6161.6246   0.93138139 
        10.8    404.77007   -95.725457   -75.686653    222.25394    6161.6246   0.93138139 
        10.9    391.45737   -95.066423   -75.686685   -1235.5502    6161.6246   0.93138139 
          11    398.64981   -95.424451    -75.68864   -72.140388    6161.6246   0.93138139 
        11.1     394.2847   -95.210069    -75.69036    312.67314    6161.6246   0.93138139 
        11.2    382.30754   -94.612619   -75.685859   -1548.2514    6161.6246   0.93138139 
        11.3    406.44122   -95.812038   -75.690501   -1000.7963    6161.6246   0.93138139 
        11.4    373.07172   -94.153536    -75.68401   -637.55739    6161.6246   0.93138139 
        11.5    392.71099   -95.128366   -75.686566   -200.53307    6161.6246   0.93138139 
        11.6    398.65089   -95.424581   -75.688717   -671.44537    6161.6246   0.93138139 
        11.7    404.84393   -95.731223   -75.688761   -155.61946    6161.6246   0.93138139 
        11.8    400.31383   -95.504401    -75.68621   -679.48539    6161.6246   0.93138139 
        11.9    387.22345   -94.857643   -75.687512    31.456381    6161.6246   0.93138139 
          12     369.9224   -93.998669   -75.685055   -2112.8534    6161.6246   0.93138139 
        12.1    406.79888   -95.825287   -75.686043   -509.05649    6161.6246   0.93138139 
        12.2    397.21077   -95.352429    -75.68786    2543.8344    6161.6246   0.93138139 
        12.3    392.85486   -95.136795   -75.687872    1435.5497    6161.6246   0.93138139 
        12.4    388.50184   -94.918588   -75.685169   -853.92725    6161.6246   0.93138139 
        12.5    389.58755   -94.974965   -75.687797    175.47779    6161.6246   0.93138139 
        12.6    381.86709   -94.589245   -75.684291   -821.09168    6161.6246   0.93138139 
        12.7    381.27678   -94.560916   -75.685185   -736.53335    6161.6246   0.93138139 
        12.8    386.95341   -94.845339   -75.688577    1533.0776    6161.6246   0.93138139 
        12.9    400.86405    -95.53494    -75.68951    259.55366    6161.6246   0.93138139 
          13    394.23874   -95.204923   -75.687489    325.29743    6161.6246   0.93138139 
        13.1    370.30181    -94.02106   -75.688663    424.82163    6161.6246   0.93138139 
        13.2    389.74458   -94.981408   -75.686465   -798.41457    6161.6246   0.93138139 
        13.3    393.17874   -95.151777    -75.68682    854.68286    6161.6246   0.93138139 
        13.4    403.94077   -95.686674   -75.688926   -90.949952    6161.6246   0.93138139 
        13.5    385.19327   -94.755192   -75.685569   -394.73096    6161.6246   0.93138139 
        13.6     404.8681   -95.732424   -75.688767   -98.241134    6161.6246   0.93138139 
        13.7    398.27889   -95.403002   -75.685554   -1195.8501    6161.6246   0.93138139 
        13.8    409.57181   -95.966508   -75.689986    548.79491    6161.6246   0.93138139 
        13.9    410.98173   -96.037997   -75.691675    1673.9601    6161.6246   0.93138139 
          14    378.38715   -94.418215   -75.685541   -143.22245    6161.6246   0.93138139 
        14.1     377.7211   -94.385415   -75.685715   -500.29338    6161.6246   0.93138139 
        14.2    396.74438   -95.330011   -75.688531   -648.98808    6161.6246   0.93138139 
        14.3    391.87391   -95.088964   -75.688605   -967.12648    6161.6246   0.93138139 
        14.4    387.58568   -94.874937   -75.686874    1260.1287    6161.6246   0.93138139 
        14.5    387.16748   -94.854231   -75.686871   -56.168054    6161.6246   0.93138139 
        14.6    401.27326   -95.556252   -75.690563   -1320.8144    6161.6246   0.93138139 
        14.7    414.27878   -96.197282   -75.687733   -117.00167    6161.6246   0.93138139 
        14.8    397.81238   -95.380349   -75.685997     2031.922    6161.6246   0.93138139 
        14.9    396.77803   -95.330057   -75.686912    1432.2122    6161.6246   0.93138139 
          15    401.29593   -95.554718   -75.687906      918.069    6161.6246   0.93138139 
        15.1    393.27248   -95.161167    -75.69157    1476.5719    6161.6246   0.93138139 
        15.2    387.01598   -94.848176   -75.688317   -227.75402    6161.6246   0.93138139 
        15.3    423.92589   -96.678714    -75.69157   -417.11247    6161.6246   0.93138139 
        15.4    416.64536   -96.319895   -75.693185    1344.6348    6161.6246   0.93138139 
        15.5    412.78242   -96.125836   -75.690368    702.52974    6161.6246   0.93138139 
        15.6    404.12838    -95.69411   -75.687074   -426.75252    6161.6246   0.93138139 
        15.7    406.10832   -95.794599   -75.689542   -55.116758    6161.6246   0.93138139 
        15.8    385.43244   -94.767744   -75.686281   -1330.7638    6161.6246   0.93138139 
        15.9    400.38746   -95.509679   -75.687843   -985.81928    6161.6246   0.93138139 
          16    381.23087   -94.562275   -75.688817    976.00067    6161.6246   0.93138139 
        16.1     397.2476   -95.357558   -75.691166   -664.19892    6161.6246   0.93138139 
        16.2     407.6879   -95.874988   -75.691732   -940.06118    6161.6246   0.93138139 
        16.3     400.9812   -95.545595   -75.694365   -6.9332156    6161.6246   0.93138139 
        16.4    387.34055   -94.865459   -75.689532   -1126.5742    6161.6246   0.93138139 
        16.5    408.41394   -95.909926   -75.690726   -2361.1523    6161.6246   0.93138139 
        16.6    389.57816   -94.974712   -75.688008   -7.8071962    6161.6246   0.93138139 
        16.7    381.28623    -94.56284   -75.686642   -1163.0062    6161.6246   0.93138139 
        16.8    381.07837   -94.554673   -75.688765   -783.88471    6161.6246   0.93138139 
        16.9    413.71805   -96.173105   -75.691316   -1389.6287    6161.6246   0.93138139 
          17    434.62739   -97.211805   -75.694865   -1893.0183    6161.6246   0.93138139 
        17.1    395.17884   -95.255086   -75.691111    454.32303    6161.6246   0.93138139 
        17.2    410.57692   -96.018943   -75.692661    60.754921    6161.6246   0.93138139 
        17.3    388.58052   -94.925292   -75.687978   -873.14139    6161.6246   0.93138139 
        17.4    389.42939   -94.969951   -75.690612    3.4366995    6161.6246   0.93138139 
        17.5    392.68748   -95.129987   -75.689351    955.55507    6161.6246   0.93138139 
        17.6    396.84197   -95.336507   -75.690196   -315.03865    6161.6246   0.93138139 
        17.7    399.48275   -95.469674   -75.692627    506.86502    6161.6246   0.93138139 
        17.8    406.37807   -95.809518   -75.691107   -1368.1491    6161.6246   0.93138139 
        17.9    403.41801   -95.665098    -75.69323    300.48519    6161.6246   0.93138139 
          18    392.36539   -95.114805   -75.690114   -2978.3297    6161.6246   0.93138139 
        18.1    382.53882   -94.626464   -75.688254   -1540.4142    6161.6246   0.93138139 
        18.2    403.89403   -95.688127   -75.692692   -2424.1161    6161.6246   0.93138139 
        18.3    398.60746    -95.42421   -75.690496    924.61777    6161.6246   0.93138139 
        18.4    403.44935   -95.665173   -75.691753    1197.8843    6161.6246   0.93138139 
        18.5    404.16011   -95.698249   -75.689641   -1131.7676    6161.6246   0.93138139 
        18.6    381.35089   -94.567135   -75.687736    176.17232    6161.6246   0.93138139 
        18.7    385.75523   -94.784654    -75.68721   -740.33873    6161.6246   0.93138139 
        18.8     391.2621   -95.059617   -75.689547   -1504.9143    6161.6246   0.93138139 
        18.9    420.62753   -96.512278   -75.688424    7.7587102    6161.6246   0.93138139 
          19    376.09455   -94.308272   -75.689096    490.76685    6161.6246   0.93138139 
        19.1    392.95554   -95.141366    -75.68746   -41.112516    6161.6246   0.93138139 
        19.2     387.8527   -94.887937   -75.686655    747.03996    6161.6246   0.93138139 
        19.3     390.5546   -95.024385    -75.68934   -393.46265    6161.6246   0.93138139 
        19.4    390.17073   -95.005547   -75.689507     1016.005    6161.6246   0.93138139 
        19.5    417.37722   -96.353174   -75.690233   -328.64259    6161.6246   0.93138139 
        19.6    388.18951     -94.9054   -75.687443   -953.82496    6161.6246   0.93138139 
        19.7    377.41767   -94.372586   -75.687907   -646.95114    6161.6246   0.93138139 
        19.8    392.36668    -95.11482   -75.690066   -898.82649    6161.6246   0.93138139 
        19.9    373.04128   -94.157363   -75.689344    -3060.979    6161.6246   0.93138139 
          20    381.81969   -94.593234   -75.690626   -1524.6585    6161.6246   0.93138139 
        20.1    377.84591   -94.391999   -75.686119   -2193.4587    6161.6246   0.93138139 
        20.2    373.49496   -94.179002   -75.688523   -1749.5655    6161.6246   0.93138139 
        20.3    389.38385   -94.971045   -75.693961   -991.75753    6161.6246   0.93138139 
        20.4    400.45463   -95.517105   -75.691944   -1380.7584    6161.6246   0.93138139 
        20.5    372.13687   -94.114523   -75.691279   -915.15049    6161.6246   0.93138139 
        20.6     357.8971    -93.40379   -75.685508   -1210.8126    6161.6246   0.93138139 
        20.7    379.71955   -94.485435   -75.686798   -1867.1698    6161.6246   0.93138139 
        20.8    373.03525   -94.153845   -75.686125   -665.91987    6161.6246   0.93138139 
        20.9    394.45535   -95.215088   -75.686931    410.99876    6161.6246   0.93138139 
          21    397.44958   -95.366261    -75.68987    44.883497    6161.6246   0.93138139 
        21.1    396.15634   -95.301271   -75.688903    1206.5131    6161.6246   0.93138139 
        21.2    378.45576   -94.421378   -75.685307    841.69576    6161.6246   0.93138139 
        21.3    384.15599   -94.708077   -75.689806   -303.27588    6161.6246   0.93138139 
        21.4    398.92091   -95.439143   -75.689911   -2123.7556    6161.6246   0.93138139 
        21.5    378.97511   -94.448996   -75.687214    21.552769    6161.6246   0.93138139 
        21.6    404.85428   -95.734799   -75.691825    -45.36466    6161.6246   0.93138139 
        21.7    413.85192   -96.178546    -75.69013   -1080.2912    6161.6246   0.93138139 
        21.8    397.15299   -95.349657   -75.687948   -1138.1305    6161.6246   0.93138139 
        21.9    380.05254   -94.502395   -75.687272    928.63157    6161.6246   0.93138139 
          22     385.6728   -94.781651   -75.688289   -262.93503    6161.6246   0.93138139 
        22.1    378.80243   -94.441243   -75.688009    693.67156    6161.6246   0.93138139 
        22.2     371.4343   -94.075288   -75.686826   -643.28148    6161.6246   0.93138139 
        22.3    411.13995   -96.043445   -75.689289    1971.7606    6161.6246   0.93138139 
        22.4    376.21486     -94.3128   -75.687668    522.92075    6161.6246   0.93138139 
        22.5    369.14949   -93.962523   -75.687174   -378.57857    6161.6246   0.93138139 
        22.6    401.65178   -95.572355   -75.687927   -1772.2762    6161.6246   0.93138139 
        22.7    372.92774   -94.148772   -75.686374    379.32574    6161.6246   0.93138139 
        22.8    344.65907   -92.749093   -75.686182   -882.37751    6161.6246   0.93138139 
        22.9    402.86414   -95.631921   -75.687473   -420.92709    6161.6246   0.93138139 
          23    418.74152    -96.42289   -75.692406   -273.69795    6161.6246   0.93138139 
        23.1    404.06645   -95.694075   -75.690105    411.86259    6161.6246   0.93138139 
        23.2    382.15677   -94.608524   -75.689228   -461.71102    6161.6246   0.93138139 
        23.3    394.27966   -95.207248   -75.687789   -782.01897    6161.6246   0.93138139 
        23.4    373.23665   -94.163744   -75.686053   -2182.1462    6161.6246   0.93138139 
        23.5    381.81324   -94.590634   -75.688345   -688.01449    6161.6246   0.93138139 
        23.6    399.79724   -95.483383   -75.690766   -2232.4896    6161.6246   0.93138139 
        23.7    377.21914   -94.363065   -75.688215   -773.53196    6161.6246   0.93138139 
        23.8    413.78984   -96.176442   -75.691099   -764.66537    6161.6246   0.93138139 
        23.9    387.30689   -94.860389   -75.686127    2169.1501    6161.6246   0.93138139 
          24    393.73053   -95.182211   -75.689937    187.63573    6161.6246   0.93138139 
        24.1    377.23788   -94.363378     -75.6876    2683.0603    6161.6246   0.93138139 
        24.2    401.22142   -95.552428   -75.689305   -112.51249    6161.6246   0.93138139 
        24.3    377.16161   -94.359564   -75.687562    390.62138    6161.6246   0.93138139 
        24.4    404.42625   -95.713581   -75.691798   -808.82476    6161.6246   0.93138139 
        24.5    389.58714   -94.975082   -75.687933   -94.038487    6161.6246   0.93138139 
        24.6      386.262   -94.812499   -75.689967    3053.9899    6161.6246   0.93138139 
        24.7    360.02132   -93.508038   -75.684593    617.50074    6161.6246   0.93138139 
        24.8     391.2217   -95.056569   -75.688499   -912.73712    6161.6246   0.93138139 
        24.9    380.11081   -94.506342   -75.688334    851.92136    6161.6246   0.93138139 
          25    375.73001    -94.28684   -75.685711    990.77911    6161.6246   0.93138139 
        25.1    373.73117   -94.188949   -75.686776    85.365774    6161.6246   0.93138139 
        25.2    368.76637   -93.942273    -75.68589   -1033.7852    6161.6246   0.93138139 
        25.3    394.95403   -95.239415    -75.68657   -1136.3193    6161.6246   0.93138139 
        25.4    388.26652   -94.909979    -75.68821   -1618.5014    6161.6246   0.93138139 
        25.5    403.93162   -95.686387   -75.689091   -1063.1762    6161.6246   0.93138139 
        25.6    385.82209    -94.78905   -75.688296    1185.9716    6161.6246   0.93138139 
        25.7    397.55112   -95.371181   -75.689762   -367.92092    6161.6246   0.93138139 
        25.8    354.24646   -93.223375   -75.685824   -1490.9607    6161.6246   0.93138139 
        25.9     386.1905   -94.806674   -75.687682   -1289.7032    6161.6246   0.93138139 
          26    389.70807   -94.978821   -75.685686    537.73357    6161.6246   0.93138139 
        26.1    359.64458   -93.490381   -75.685588    13.209469    6161.6246   0.93138139 
        26.2    384.72249   -94.738531   -75.692215   -1753.3716    6161.6246   0.93138139 
        26.3    398.88989   -95.434404   -75.686708   -1447.5719    6161.6246   0.93138139 
        26.4    396.81904   -95.335393   -75.690217    1235.7092    6161.6246   0.93138139 
        26.5    416.10964   -96.292428    -75.69224    449.79651    6161.6246   0.93138139 
        26.6    390.65729   -95.029314   -75.689186   -746.44444    6161.6246   0.93138139 
        26.7    380.06273   -94.501474   -75.685847    1574.2312    6161.6246   0.93138139 
        26.8    404.53407   -95.719122   -75.692001    193.68177    6161.6246   0.93138139 
        26.9    414.22675   -96.195702   -75.688729   -1129.4135    6161.6246   0.93138139 
          27    394.46545   -95.218426   -75.689769   -821.59105    6161.6246   0.93138139 
        27.1    392.01932   -95.094146   -75.686589    779.86661    6161.6246   0.93138139 
        27.2    378.68868    -94.43521   -75.687607   -2393.3258    6161.6246   0.93138139 
        27.3    368.28693   -93.920807    -75.68816   -1442.3661    6161.6246   0.93138139 
        27.4    396.21557   -95.305833   -75.690533   -323.79329    6161.6246   0.93138139 
        27.5    376.49926   -94.327465   -75.688253    1588.0631    6161.6246   0.93138139 
        27.6    389.85881   -94.993731   -75.693133   -1558.8187    6161.6246   0.93138139 
        27.7    388.06204   -94.897233   -75.685587   -918.49415    6161.6246   0.93138139 
        27.8    371.70685    -94.08577   -75.683814    1490.1652    6161.6246   0.93138139 
        27.9    370.80105   -94.041825   -75.684712   -1349.2735    6161.6246   0.93138139 
          28    407.07909   -95.843481   -75.690365    1005.9967    6161.6246   0.93138139 
        28.1    396.85214    -95.32957   -75.682756   -707.44457    6161.6246   0.93138139 
        28.2    386.09081   -94.800275   -75.686218    -1053.866    6161.6246   0.93138139 
        28.3    388.42154   -94.917251   -75.687808   -136.35787    6161.6246   0.93138139 
        28.4    394.81745   -95.235809   -75.689725    -897.2691    6161.6246   0.93138139 
        28.5    394.49529   -95.217878   -75.687744   -2192.7791    6161.6246   0.93138139 
        28.6    374.06552   -94.208223   -75.689498    1238.2196    6161.6246   0.93138139 
        28.7    385.46674   -94.771811   -75.688649    1668.3246    6161.6246   0.93138139 
        28.8    402.64319   -95.623775   -75.690265    1041.7034    6161.6246   0.93138139 
        28.9    388.38753   -94.915855   -75.688095   -1107.6041    6161.6246   0.93138139 
          29    380.44429    -94.52393   -75.689414   -118.53583    6161.6246   0.93138139 
        29.1    402.58447   -95.623422   -75.692819   -287.09749    6161.6246   0.93138139 
        29.2     405.5785   -95.772156   -75.693329   -1116.0621    6161.6246   0.93138139 
        29.3    409.97941   -95.989656   -75.692955   -150.26705    6161.6246   0.93138139 
        29.4    381.05825   -94.554945   -75.690033    -733.6667    6161.6246   0.93138139 
        29.5    369.47462   -93.981477   -75.690032   -1347.3124    6161.6246   0.93138139 
        29.6     392.0957   -95.099957   -75.688618   -949.97808    6161.6246   0.93138139 
        29.7    397.68363   -95.379203   -75.691224    1534.6972    6161.6246   0.93138139 
        29.8     383.1952   -94.656634   -75.685929   -399.38727    6161.6246   0.93138139 
        29.9    368.13288   -93.912381    -75.68736   -871.63967    6161.6246   0.93138139 
          30    405.23893   -95.752561   -75.690545   -1491.0789    6161.6246   0.93138139 
        30.1    396.00911   -95.294209    -75.68913   -1398.0887    6161.6246   0.93138139 
        30.2    372.57427   -94.130845   -75.685946    707.81006    6161.6246   0.93138139 
        30.3    402.63641    -95.62173   -75.688556   -1206.1382    6161.6246   0.93138139 
        30.4    393.15068   -95.155687    -75.69212   -255.76259    6161.6246   0.93138139 
        30.5    382.27147   -94.614614    -75.68964    -962.2815    6161.6246   0.93138139 
        30.6    391.95466   -95.094411   -75.690055   -1816.0794    6161.6246   0.93138139 
        30.7    386.18787   -94.807171   -75.688309   -120.19799    6161.6246   0.93138139 
        30.8    416.92083   -96.331346   -75.690999   -207.10826    6161.6246   0.93138139 
        30.9    389.84347   -94.986473   -75.686635    144.09865    6161.6246   0.93138139 
          31    378.83251   -94.440477   -75.685754   -286.99847    6161.6246   0.93138139 
        31.1    403.02101   -95.644328   -75.692114   -1322.7454    6161.6246   0.93138139 
        31.2    384.42411   -94.720574    -75.68903   -668.89247    6161.6246   0.93138139 
        31.3    387.70457   -94.883433   -75.689485   -183.51124    6161.6246   0.93138139 
        31.4    374.27626   -94.213905   -75.684747   -680.98926    6161.6246   0.93138139 
        31.5    357.60725   -93.390929   -75.686997    297.29245    6161.6246   0.93138139 
        31.6    389.02996   -94.946901   -75.687336   -732.96296    6161.6246   0.93138139 
        31.7    396.48679   -95.315198   -75.686471   -1405.2515    6161.6246   0.93138139 
        31.8    400.56026   -95.519554   -75.689163    1990.7188    6161.6246   0.93138139 
        31.9    391.37239   -95.064548   -75.689017    2204.4785    6161.6246   0.93138139 
          32    372.16836   -94.111831   -75.687028    649.87523    6161.6246   0.93138139 
        32.1    392.64796   -95.127369    -75.68869    1148.7627    6161.6246   0.93138139 
        32.2    399.28109   -95.458458   -75.691394    238.33469    6161.6246   0.93138139 
        32.3    386.44225   -94.819417   -75.687962    252.99704    6161.6246   0.93138139 
        32.4    391.66884   -95.080807     -75.6906   -993.36072    6161.6246   0.93138139 
        32.5    384.98664   -94.750364   -75.690971   -489.78866    6161.6246   0.93138139 
        32.6    382.75042    -94.63474   -75.686054    664.35363    6161.6246   0.93138139 
        32.7     378.2961   -94.416078   -75.687911    1050.1037    6161.6246   0.93138139 
        32.8    403.65685   -95.673056   -75.689363   -112.82908    6161.6246   0.93138139 
        32.9    385.41681   -94.769939    -75.68925    368.44154    6161.6246   0.93138139 
          33    396.35297   -95.310969   -75.688867   -526.21269    6161.6246   0.93138139 
        33.1    387.16038   -94.860069   -75.693061    1019.9471    6161.6246   0.93138139 
        33.2    392.87218   -95.139856   -75.690076   -1095.8228    6161.6246   0.93138139 
        33.3    387.03661   -94.852268   -75.691388     731.4459    6161.6246   0.93138139 
        33.4    431.05313   -97.032622   -75.692631   -620.74866    6161.6246   0.93138139 
        33.5    408.18304   -95.899532   -75.691763    93.371596    6161.6246   0.93138139 
        33.6     403.7002   -95.678074   -75.692236    1376.8105    6161.6246   0.93138139 
        33.7    385.24347   -94.761248    -75.68914   -1427.1083    6161.6246   0.93138139 
        33.8    390.25063   -95.007955   -75.687959   -991.89481    6161.6246   0.93138139 
        33.9    397.50226   -95.370071   -75.691071     377.2876    6161.6246   0.93138139 
          34    393.13442   -95.152175   -75.689413    -1553.635    6161.6246   0.93138139 
        34.1    415.49216     -96.2621   -75.692482   -386.63141    6161.6246   0.93138139 
        34.2    398.61687   -95.420782   -75.686602   -927.08832    6161.6246   0.93138139 
        34.3    395.66667   -95.279159   -75.691033   -234.17267    6161.6246   0.93138139 
        34.4    401.79017   -95.584748   -75.693469   -82.520557    6161.6246   0.93138139 
        34.5    391.57305   -95.077416   -75.691951    243.11423    6161.6246   0.93138139 
        34.6    390.50377    -95.02134   -75.688812    452.11706    6161.6246   0.93138139 
        34.7    400.50244   -95.519198    -75.69167   -46.483389    6161.6246   0.93138139 
        34.8     354.1799   -93.222981   -75.688725   -937.97091    6161.6246   0.93138139 
        34.9    412.01066    -96.08801   -75.690749   -761.06634    6161.6246   0.93138139 
          35    398.65843   -95.427434   -75.691196   -803.15433    6161.6246   0.93138139 
        35.1    387.93773   -94.898675   -75.693183   -51.938214    6161.6246   0.93138139 
        35.2    403.15954    -95.64914   -75.690068   -3.8471634    6161.6246   0.93138139 
        35.3    383.07571   -94.652675   -75.687886   -1137.5879    6161.6246   0.93138139 
        35.4    372.88671   -94.148242   -75.687876   -317.15583    6161.6246   0.93138139 
        35.5    377.07467   -94.358226   -75.690528   -527.91464    6161.6246   0.93138139 
        35.6    408.59253   -95.919538   -75.691497   -1089.8497    6161.6246   0.93138139 
        35.7    388.58019    -94.92679   -75.689492    142.83644    6161.6246   0.93138139 
        35.8    369.32578   -93.973443   -75.689366    581.45208    6161.6246   0.93138139 
        35.9    384.21629    -94.71151   -75.690254     562.6956    6161.6246   0.93138139 
          36    410.88501   -96.034007   -75.692473   -566.12895    6161.6246   0.93138139 
        36.1    387.55563   -94.874819   -75.688244   -59.878916    6161.6246   0.93138139 
        36.2    396.40109   -95.313472   -75.688987    701.64199    6161.6246   0.93138139 
        36.3    404.15979   -95.698456   -75.689865    422.62301    6161.6246   0.93138139 
        36.4    409.80115   -95.980494   -75.692618   -350.14189    6161.6246   0.93138139 
        36.5    392.91476   -95.141288     -75.6894   -2210.7206    6161.6246   0.93138139 
        36.6      391.942   -95.094887   -75.691157   -557.31647    6161.6246   0.93138139 
        36.7    382.73938   -94.636075   -75.687936   -1124.7329    6161.6246   0.93138139 
        36.8    384.06383   -94.704343   -75.690635    878.45254    6161.6246   0.93138139 
        36.9    355.71933   -93.299639   -75.689172    624.73047    6161.6246   0.93138139 
          37    358.24186   -93.419724   -75.684374   -584.24403    6161.6246   0.93138139 
        37.1    412.32617   -96.106746   -75.693864    796.73554    6161.6246   0.93138139 
        37.2    391.83186   -95.086224   -75.687947   -549.42131    6161.6246   0.93138139 
        37.3    381.02349   -94.551946   -75.688755    754.27894    6161.6246   0.93138139 
        37.4    402.25024   -95.605204   -75.691147   -260.34612    6161.6246   0.93138139 
        37.5    379.92989   -94.496795   -75.687745   -472.67843    6161.6246   0.93138139 
        37.6    391.77824   -95.087607   -75.691984    345.72528    6161.6246   0.93138139 
        37.7     406.3471   -95.809182   -75.692304    73.463548    6161.6246   0.93138139 
        37.8    400.70041   -95.527392   -75.690063    493.82328    6161.6246   0.93138139 
        37.9    405.20386   -95.750329   -75.690049    1121.6727    6161.6246   0.93138139 
          38    410.24462   -96.003075   -75.693244   -2025.3576    6161.6246   0.93138139 
        38.1    370.28974   -94.022607   -75.690808    1153.8232    6161.6246   0.93138139 
        38.2    388.09157   -94.904897   -75.691789   -164.39264    6161.6246   0.93138139 
        38.3     394.4307   -95.216652   -75.689715   -1719.9494    6161.6246   0.93138139 
        38.4    383.27854   -94.665269   -75.690439    171.50413    6161.6246   0.93138139 
        38.5    393.00116   -95.145012   -75.688847   -1577.9938    6161.6246   0.93138139 
        38.6    371.02956   -94.057637   -75.689212   -294.32137    6161.6246   0.93138139 
        38.7    380.46376   -94.526066   -75.690586   -1358.5777    6161.6246   0.93138139 
        38.8    407.90611   -95.886112   -75.692053   -1112.2772    6161.6246   0.93138139 
        38.9    385.96994   -94.799399   -75.691326    708.77552    6161.6246   0.93138139 
          39    400.33295   -95.510806   -75.691668    633.96445    6161.6246   0.93138139 
        39.1    397.23267   -95.359211   -75.693558   -1185.8976    6161.6246   0.93138139 
        39.2    385.41137   -94.772773   -75.692353   -1381.1592    6161.6246   0.93138139 
        39.3    405.20322   -95.754116   -75.693868    241.30942    6161.6246   0.93138139 
        39.4    382.84228   -94.643726   -75.690493    24.100046    6161.6246   0.93138139 
        39.5    382.70146   -94.638001   -75.691739   -153.43761    6161.6246   0.93138139 
        39.6    380.75781    -94.54181   -75.691772    210.47349    6161.6246   0.93138139 
        39.7    391.01972   -95.052051    -75.69398   -714.51411    6161.6246   0.93138139 
        39.8    402.69334   -95.629295   -75.693302   -1865.1792    6161.6246   0.93138139 
        39.9    402.79404   -95.632361   -75.691384   -389.52644    6161.6246   0.93138139 
          40    375.43368   -94.273927   -75.687468   -129.03547    6161.6246   0.93138139 
        40.1    400.32804   -95.514781   -75.695886   -1072.6912    6161.6246   0.93138139 
        40.2    390.13686   -95.009169   -75.694806   -2266.5882    6161.6246   0.93138139 
        40.3    394.43171   -95.220833   -75.693846   -900.23691    6161.6246   0.93138139 
        40.4     389.3463   -94.965766    -75.69054   -2279.6317    6161.6246   0.93138139 
        40.5    367.19685   -93.866238   -75.687557   -1790.4995    6161.6246   0.93138139 
        40.6    386.39909    -94.81969    -75.69037   -1159.5073    6161.6246   0.93138139 
        40.7    371.49103   -94.082234   -75.690963   -2318.2894    6161.6246   0.93138139 
        40.8    363.84846   -93.701461   -75.688548   -795.37281    6161.6246   0.93138139 
        40.9    387.52254   -94.874998   -75.690061   -278.12687    6161.6246   0.93138139 
          41    384.78426   -94.741114    -75.69174   -466.09614    6161.6246   0.93138139 
        41.1    375.27664   -94.268915   -75.690231   -31.793678    6161.6246   0.93138139 
        41.2     407.5139    -95.86504   -75.690398   -1449.1104    6161.6246   0.93138139 
        41.3     371.4918   -94.083335   -75.692026    83.007976    6161.6246   0.93138139 
        41.4    384.42715   -94.721024   -75.689329   -270.40289    6161.6246   0.93138139 
        41.5    368.06814   -93.909392   -75.687577   -465.10794    6161.6246   0.93138139 
        41.6    398.78666   -95.434561   -75.691975    -1992.806    6161.6246   0.93138139 
        41.7    393.18274   -95.157031   -75.691877    -2621.389    6161.6246   0.93138139 
        41.8    394.21728   -95.210237   -75.693866    472.25209    6161.6246   0.93138139 
        41.9    377.15282   -94.362476   -75.690909   -1210.1512    6161.6246   0.93138139 
          42     377.8494   -94.399314   -75.693262   -2018.7149    6161.6246   0.93138139 
        42.1    386.97146   -94.852748   -75.695093   -225.81778    6161.6246   0.93138139 
        42.2    391.63205   -95.080534   -75.692149   -791.25155    6161.6246   0.93138139 
        42.3    384.38176   -94.720697   -75.691249   -969.59689    6161.6246   0.93138139 
        42.4    398.10082   -95.397146   -75.688514    41.265179    6161.6246   0.93138139 
        42.5    391.60391   -95.077236   -75.690244    587.08522    6161.6246   0.93138139 
        42.6    390.66698    -95.03339   -75.692783    1102.6301    6161.6246   0.93138139 
        42.7    395.17646   -95.254455   -75.690598    137.47363    6161.6246   0.93138139 
        42.8    417.73736   -96.374155   -75.693384    446.98018    6161.6246   0.93138139 
        42.9    379.10687   -94.458521   -75.690215     229.9702    6161.6246   0.93138139 
          43    387.29112    -94.86488     -75.6914    21.009296    6161.6246   0.93138139 
        43.1    393.34267   -95.164321   -75.691249   -1016.3629    6161.6246   0.93138139 
        43.2    378.46814    -94.42666   -75.689976    -708.0844    6161.6246   0.93138139 
        43.3    397.86673   -95.387232   -75.690189   -469.86648    6161.6246   0.93138139 
        43.4    377.69125   -94.389756   -75.691532   -1215.3551    6161.6246   0.93138139 
        43.5    372.94137   -94.151661   -75.688588    909.90352    6161.6246   0.93138139 
        43.6    367.31225   -93.872638   -75.688244   -1397.6101    6161.6246   0.93138139 
        43.7    375.75432   -94.293921   -75.691589   -1913.0014    6161.6246   0.93138139 
        43.8    389.78936   -94.988245   -75.691085    108.86896    6161.6246   0.93138139 
        43.9    367.48103   -93.879774   -75.687024   -1601.7219    6161.6246   0.93138139 
          44    380.99552   -94.551589   -75.689783   -618.51937    6161.6246   0.93138139 
        44.1    398.51036   -95.420127    -75.69122    85.679273    6161.6246   0.93138139 
        44.2     394.0122   -95.197889   -75.691671   -1.1675803    6161.6246   0.93138139 
        44.3    391.90693   -95.094049   -75.692055    1277.8714    6161.6246   0.93138139 
        44.4    385.21832   -94.760172   -75.689309    1397.5827    6161.6246   0.93138139 
        44.5    416.57241   -96.319324   -75.696225   -597.58105    6161.6246   0.93138139 
        44.6    400.31192   -95.511577   -75.693481    6.5754056    6161.6246   0.93138139 
        44.7    407.27726   -95.855772   -75.692845      897.724    6161.6246   0.93138139 
        44.8      413.689   -96.171955   -75.691604   -61.886981    6161.6246   0.93138139 
        44.9    413.05777   -96.144576   -75.695475   -167.84519    6161.6246   0.93138139 
          45    390.73015    -95.03634   -75.692605    149.91644    6161.6246   0.93138139 
        45.1    383.50885    -94.67562   -75.689388    459.01675    6161.6246   0.93138139 
        45.2    399.96175   -95.493653   -75.692892    137.94113    6161.6246   0.93138139 
        45.3    377.04898   -94.357042   -75.690615    295.23507    6161.6246   0.93138139 
        45.4    417.03131   -96.339053   -75.693236   -490.94453    6161.6246   0.93138139 
        45.5    368.74832   -93.946699    -75.69121    1088.3586    6161.6246   0.93138139 
        45.6    406.16073   -95.801208   -75.693557   -304.86546    6161.6246   0.93138139 
        45.7    419.67186   -96.473589   -75.697047   -951.43191    6161.6246   0.93138139 
        45.8     391.4875   -95.074078   -75.692849    180.36761    6161.6246   0.93138139 
        45.9     386.4384   -94.822709   -75.691444   -599.48469    6161.6246   0.93138139 
          46     374.9457   -94.254509   -75.692209   -1213.6277    6161.6246   0.93138139 
        46.1     394.0102   -95.193608   -75.687489   -447.05087    6161.6246   0.93138139 
        46.2    410.46663   -96.014822      -75.694   -2660.1761    6161.6246   0.93138139 
        46.3    382.12482   -94.605931   -75.688217   -374.67604    6161.6246   0.93138139 
        46.4    415.04633   -96.241484   -75.693936   -547.13231    6161.6246   0.93138139 
        46.5    382.51321   -94.627873   -75.690931   -273.02739    6161.6246   0.93138139 
        46.6    394.14227   -95.201667    -75.68901     618.5175    6161.6246   0.93138139 
        46.7     395.2745   -95.259228   -75.690517    284.10124    6161.6246   0.93138139 
        46.8    399.78311    -95.48509   -75.693173     106.6824    6161.6246   0.93138139 
        46.9    429.92643   -96.979706   -75.695496    255.81401    6161.6246   0.93138139 
          47    397.98443   -95.392586   -75.689715    496.53623    6161.6246   0.93138139 
        47.1    404.18168    -95.70202   -75.692345    540.76258    6161.6246   0.93138139 
        47.2    405.00595   -95.745124   -75.694642   -2763.3978    6161.6246   0.93138139 
        47.3    403.85727   -95.685937   -75.692322   -1415.7419    6161.6246   0.93138139 
        47.4    367.91398    -93.90565   -75.691467    715.37935    6161.6246   0.93138139 
        47.5    410.07888   -95.992819   -75.691193   -910.28085    6161.6246   0.93138139 
        47.6    387.85864    -94.89163   -75.690054   -288.48793    6161.6246   0.93138139 
        47.7    393.68348   -95.181457   -75.691512    1562.9779    6161.6246   0.93138139 
        47.8    387.00822    -94.84733   -75.687855    1012.2627    6161.6246   0.93138139 
        47.9    396.13892   -95.304127   -75.692622   -123.14851    6161.6246   0.93138139 
          48    386.10569   -94.806407   -75.691613   -1365.9893    6161.6246   0.93138139 
        48.1    407.44874   -95.862835   -75.691419    -1110.844    6161.6246   0.93138139 
        48.2    383.03375   -94.655182   -75.692469    954.88293    6161.6246   0.93138139 
        48.3    389.84803   -94.992984   -75.692919   -1188.8853    6161.6246   0.93138139 
        48.4    391.27755   -95.060828   -75.689993   -1807.3999    6161.6246   0.93138139 
        48.5    409.67438   -95.974988   -75.693387   -1208.8943    6161.6246   0.93138139 
        48.6     423.3672   -96.654779   -75.695294   -2886.2134    6161.6246   0.93138139 
        48.7    398.29542   -95.408504   -75.690238   -469.51646    6161.6246   0.93138139 
        48.8    368.35629   -93.924668   -75.688587   -1700.5169    6161.6246   0.93138139 
        48.9    391.87872   -95.094156   -75.693559   -1160.4706    6161.6246   0.93138139 
          49    385.66006   -94.782148   -75.689416   -1623.9918    6161.6246   0.93138139 
        49.1    392.73766   -95.133773   -75.690652   -584.07664    6161.6246   0.93138139 
        49.2     385.9931   -94.797366   -75.688147   -55.646421    6161.6246   0.93138139 
        49.3    401.41754    -95.56237   -75.689538   -1538.8131    6161.6246   0.93138139 
        49.4    412.60025   -96.118778   -75.692328   -70.239972    6161.6246   0.93138139 
        49.5     392.9744   -95.145307   -75.690466   -77.254374    6161.6246   0.93138139 
        49.6     386.0022   -94.803401    -75.69373   -659.01837    6161.6246   0.93138139 
        49.7     379.0071   -94.452389   -75.689023   -48.217742    6161.6246   0.93138139 
        49.8     408.3233   -95.905802   -75.691089     1315.292    6161.6246   0.93138139 
        49.9    408.28183   -95.905404   -75.692745    402.52816    6161.6246   0.93138139 
          50    402.78066   -95.632844   -75.692529    984.02046    6161.6246   0.93138139 
        50.1    388.62102   -94.931374   -75.692054    207.22253    6161.6246   0.93138139 
        50.2    371.82598    -94.09361   -75.685757   -988.50871    6161.6246   0.93138139 
        50.3    383.02344   -94.653556   -75.691354    524.37929    6161.6246   0.93138139 
        50.4    389.08926   -94.953405   -75.690904    204.43566    6161.6246   0.93138139 
        50.5    388.66459   -94.931058   -75.689582    734.02141    6161.6246   0.93138139 
        50.6     400.7423   -95.528256   -75.688853   -954.11088    6161.6246   0.93138139 
        50.7    383.71233   -94.689581   -75.693274    1140.6684    6161.6246   0.93138139 
        50.8    393.07765   -95.153031   -75.693079   -100.11735    6161.6246   0.93138139 
        50.9    407.27665   -95.855788   -75.692891    -1135.508    6161.6246   0.93138139 
          51    401.11031    -95.55432   -75.696698    881.92519    6161.6246   0.93138139 
        51.1    391.69626   -95.081059   -75.689495    792.77758    6161.6246   0.93138139 
        51.2    397.90413   -95.389467   -75.690572    923.94108    6161.6246   0.93138139 
        51.3    383.64003   -94.680717    -75.68799    1340.7311    6161.6246   0.93138139 
        51.4    407.16052   -95.850687   -75.693539   -1122.3255    6161.6246   0.93138139 
        51.5    388.46839   -94.923308   -75.691545    1146.9107    6161.6246   0.93138139 
        51.6    407.60866   -95.874139   -75.694805   -493.85916    6161.6246   0.93138139 
        51.7    400.93725   -95.540481   -75.691426   -719.89433    6161.6246   0.93138139 
        51.8     371.4785   -94.082062   -75.691412    219.78614    6161.6246   0.93138139 
        51.9    398.32451    -95.41292   -75.693214   -506.79552    6161.6246   0.93138139 
          52     390.7489   -95.038375   -75.693712   -3311.0066    6161.6246   0.93138139 
        52.1     396.5058   -95.321266   -75.691598   -165.80889    6161.6246   0.93138139 
        52.2    385.10459   -94.756117   -75.690885    110.04183    6161.6246   0.93138139 
        52.3    418.01464   -96.390407   -75.695908   -1419.8248    6161.6246   0.93138139 
        52.4    392.10071   -95.104444   -75.692857   -106.28695    6161.6246   0.93138139 
        52.5    378.95775   -94.451339   -75.690416    878.74373    6161.6246   0.93138139 
        52.6     399.2882    -95.45677   -75.689354    528.25692    6161.6246   0.93138139 
        52.7    395.08932   -95.250731   -75.691187   -174.05645    6161.6246   0.93138139 
        52.8    408.98018   -95.941825   -75.694592    1559.9929    6161.6246   0.93138139 
        52.9    403.32314   -95.657807   -75.690636    98.377042    6161.6246   0.93138139 
          53    411.77039   -96.075185   -75.689818     1232.902    6161.6246   0.93138139 
        53.1    405.71589   -95.777961   -75.692332   -441.62804    6161.6246   0.93138139 
        53.2     397.6538   -95.378558   -75.692056    1676.2101    6161.6246   0.93138139 
        53.3    395.31501   -95.259846    -75.68913   -124.44328    6161.6246   0.93138139 
        53.4    404.82097   -95.734634    -75.69331    663.90199    6161.6246   0.93138139 
        53.5    392.49189   -95.124166   -75.693213   -307.14311    6161.6246   0.93138139 
        53.6     400.2459    -95.50764   -75.692812    418.78473    6161.6246   0.93138139 
        53.7    389.92588   -94.991948    -75.68803   -1475.4449    6161.6246   0.93138139 
        53.8    387.09788   -94.854388   -75.690474    176.44904    6161.6246   0.93138139 
        53.9    396.61628   -95.324492   -75.689355   -555.42163    6161.6246   0.93138139 
          54    374.97795   -94.254399   -75.690502   -989.39061    6161.6246   0.93138139 
        54.1    371.69848   -94.088259   -75.686718   -1028.9655    6161.6246   0.93138139 
        54.2    401.63923   -95.577464   -75.693656   -820.13365    6161.6246   0.93138139 
        54.3    375.27279   -94.266793     -75.6883   -199.25886    6161.6246   0.93138139 
        54.4    396.29122    -95.31103   -75.691985   -1118.9826    6161.6246   0.93138139 
        54.5    379.02766   -94.455047   -75.690662    1756.8751    6161.6246   0.93138139 
        54.6    389.39741   -94.968553   -75.690797   -897.28642    6161.6246   0.93138139 
        54.7    397.80416   -95.387504   -75.693558   -575.69649    6161.6246   0.93138139 
        54.8    407.09093    -95.84574   -75.692037    1326.9978    6161.6246   0.93138139 
        54.9    384.81563   -94.741962   -75.691035    1326.4485    6161.6246   0.93138139 
          55    385.33516   -94.762433   -75.685786    356.60864    6161.6246   0.93138139 
        55.1    400.01186   -95.496253   -75.693012   -1038.5553    6161.6246   0.93138139 
        55.2    366.83992   -93.849782   -75.688772    -1029.541    6161.6246   0.93138139 
        55.3    384.40105   -94.720284   -75.689881   -1286.2121    6161.6246   0.93138139 
        55.4    376.65033   -94.336128   -75.689437   -1006.9688    6161.6246   0.93138139 
        55.5    388.29153   -94.911665   -75.688658   -545.28564    6161.6246   0.93138139 
        55.6    382.19124    -94.61529   -75.694287    -527.7593    6161.6246   0.93138139 
        55.7    386.64499   -94.832462    -75.69097    -188.2806    6161.6246   0.93138139 
        55.8    384.79385   -94.739709    -75.68986     628.1987    6161.6246   0.93138139 
        55.9    373.10745    -94.16251   -75.691215   -1013.8975    6161.6246   0.93138139 
          56    371.43918   -94.075814    -75.68711   -1107.8723    6161.6246   0.93138139 
        56.1    398.00211   -95.396175   -75.692429   -904.09532    6161.6246   0.93138139 
        56.2     383.9062   -94.696697   -75.690793   -57.113626    6161.6246   0.93138139 
        56.3    384.21624   -94.710311   -75.689058     766.4166    6161.6246   0.93138139 
        56.4    377.34664   -94.367573    -75.68641   -1305.2914    6161.6246   0.93138139 
        56.5    384.97852    -94.75003   -75.691039    -1809.903    6161.6246   0.93138139 
        56.6    398.24158   -95.406575   -75.690975   -105.63831    6161.6246   0.93138139 
        56.7    399.92576   -95.489477   -75.690498    -1219.311    6161.6246   0.93138139 
        56.8    385.67642   -94.783584   -75.690042    360.20858    6161.6246   0.93138139 
        56.9    400.61102   -95.524945   -75.692042   -643.61934    6161.6246   0.93138139 
          57    406.30105   -95.806137   -75.691539   -2219.0319    6161.6246   0.93138139 
        57.1    375.60287   -94.283602   -75.688767    159.25523    6161.6246   0.93138139 
        57.2    398.88168   -95.440183   -75.692893     43.16985    6161.6246   0.93138139 
        57.3    401.08926   -95.545239   -75.688659    470.37422    6161.6246   0.93138139 
        57.4    411.70487   -96.076726   -75.694603   -1108.0144    6161.6246   0.93138139 
        57.5    436.99855   -97.330336   -75.696008   -1652.9096    6161.6246   0.93138139 
        57.6    416.62474   -96.316853   -75.691164   -401.37636    6161.6246   0.93138139 
        57.7    388.90675    -94.94304   -75.689575    -1192.201    6161.6246   0.93138139 
        57.8    373.05746   -94.159209   -75.690389   -369.81761    6161.6246   0.93138139 
        57.9    400.78826   -95.535145   -75.693466   -1007.1868    6161.6246   0.93138139 
          58    405.89979   -95.785988   -75.691256   -836.52744    6161.6246   0.93138139 
        58.1    382.81016    -94.64154   -75.689897    730.97741    6161.6246   0.93138139 
        58.2    390.98479    -95.04928   -75.692939    -184.3656    6161.6246   0.93138139 
        58.3    400.49221   -95.517473   -75.690451    1089.3563    6161.6246   0.93138139 
        58.4    386.12441   -94.808848   -75.693128     653.0656    6161.6246   0.93138139 
        58.5    412.07204   -96.095235   -75.694934     255.5117    6161.6246   0.93138139 
        58.6    421.91329   -96.579071   -75.691564   -558.31902    6161.6246   0.93138139 
        58.7    389.84351   -94.989139   -75.689299      -312.06    6161.6246   0.93138139 
        58.8    393.78407    -95.18549   -75.690565    313.32811    6161.6246   0.93138139 
        58.9    370.26065   -94.017889    -75.68753   -732.88877    6161.6246   0.93138139 
          59    390.49733   -95.018143   -75.685934   -237.66287    6161.6246   0.93138139 
        59.1    395.08782   -95.249295   -75.689826    1040.6575    6161.6246   0.93138139 
        59.2    372.95758   -94.154111   -75.690237   -1392.9064    6161.6246   0.93138139 
        59.3    366.82301   -93.851297   -75.691124   -1185.6436    6161.6246   0.93138139 
        59.4    392.98028   -95.146069   -75.690938   -1543.4626    6161.6246   0.93138139 
        59.5    404.07428    -95.69645   -75.692092   -448.51386    6161.6246   0.93138139 
        59.6    389.11226   -94.953305   -75.689666   -107.42238    6161.6246   0.93138139 
        59.7    402.29678   -95.608351   -75.691991     629.9689    6161.6246   0.93138139 
        59.8    377.80082   -94.394679   -75.691032   -797.98283    6161.6246   0.93138139 
        59.9    404.01214   -95.694208   -75.692927   -1153.0238    6161.6246   0.93138139 
          60    381.42722   -94.571265   -75.688087    586.95422    6161.6246   0.93138139 
        60.1    390.96687   -95.044316   -75.688862   -1932.0756    6161.6246   0.93138139 
        60.2    388.37415   -94.916973   -75.689875   -907.28143    6161.6246   0.93138139 
        60.3    390.88519   -95.037521   -75.686111     1026.265    6161.6246   0.93138139 
        60.4    408.83992   -95.930871   -75.690583    446.58258    6161.6246   0.93138139 
        60.5    403.58926   -95.668019   -75.687672    874.88301    6161.6246   0.93138139 
        60.6    404.75362   -95.729149    -75.69116    1018.7493    6161.6246   0.93138139 
        60.7    393.30602   -95.162885   -75.691627    458.21564    6161.6246   0.93138139 
        60.8     391.7197   -95.083273   -75.690549    463.43512    6161.6246   0.93138139 
        60.9    374.24839   -94.215637   -75.687859   -288.27164    6161.6246   0.93138139 
          61     376.9449   -94.350312   -75.689038   -1425.9006    6161.6246   0.93138139 
        61.1    388.27173   -94.914215   -75.692188   -439.05521    6161.6246   0.93138139 
        61.2    384.27463   -94.710969   -75.686825    -1443.841    6161.6246   0.93138139 
        61.3    371.83261   -94.097167   -75.688986    568.26577    6161.6246   0.93138139 
        61.4    386.96451   -94.847872   -75.690562   -1008.0117    6161.6246   0.93138139 
        61.5    396.66691   -95.327301   -75.689657   -643.09236    6161.6246   0.93138139 
        61.6    397.43076   -95.364557   -75.689097   -1358.6091    6161.6246   0.93138139 
        61.7    396.58541   -95.321539   -75.687929   -906.48336    6161.6246   0.93138139 
        61.8    383.82454   -94.690182   -75.688321   -835.91724    6161.6246   0.93138139 
        61.9     395.8116   -95.286428   -75.691128    151.06493    6161.6246   0.93138139 
          62    403.85203   -95.684581   -75.691226   -635.53327    6161.6246   0.93138139 
        62.1    376.51261   -94.330338   -75.690465   -2287.8257    6161.6246   0.93138139 
        62.2    383.05952    -94.65359   -75.689602    1685.9033    6161.6246   0.93138139 
        62.3    407.91972    -95.88693   -75.692197   -951.56757    6161.6246   0.93138139 
        62.4    404.68989   -95.727282   -75.692447    426.65329    6161.6246   0.93138139 
        62.5    412.83161   -96.132902   -75.694998   -316.37183    6161.6246   0.93138139 
        62.6    423.83329   -96.675203   -75.692643    -1400.435    6161.6246   0.93138139 
        62.7    401.65611    -95.57629   -75.691648   -1456.5983    6161.6246   0.93138139 
        62.8    401.55717   -95.571541   -75.691796   -528.57724    6161.6246   0.93138139 
        62.9    392.87927   -95.138346   -75.688215   -617.88522    6161.6246   0.93138139 
          63    385.63455   -94.783981   -75.692512   -1385.6426    6161.6246   0.93138139 
        63.1    374.82154   -94.243469   -75.687316    38.105978    6161.6246   0.93138139 
        63.2    384.72867   -94.733809   -75.687187    -215.6451    6161.6246   0.93138139 
        63.3    387.38413   -94.869361   -75.691277   -76.655282    6161.6246   0.93138139 
        63.4    359.34098     -93.4784   -75.688637   -1303.8299    6161.6246   0.93138139 
        63.5    399.63661    -95.47794   -75.693276   -1146.1848    6161.6246   0.93138139 
        63.6    402.30641   -95.609448   -75.692611   -292.97606    6161.6246   0.93138139 
        63.7    386.60058   -94.830112   -75.690818   -1176.5324    6161.6246   0.93138139 
        63.8    386.70109   -94.832396   -75.688126   -869.10167    6161.6246   0.93138139 
        63.9    402.68989   -95.632393   -75.696571   -2516.3845    6161.6246   0.93138139 
          64    401.22108   -95.555614   -75.692508   -393.96964    6161.6246   0.93138139 
        64.1     390.0388    -94.99845   -75.688941   -696.51157    6161.6246   0.93138139 
        64.2    396.41198   -95.316572   -75.691549    1968.9972    6161.6246   0.93138139 
        64.3    400.81137   -95.537466   -75.694644   -160.63526    6161.6246   0.93138139 
        64.4    398.28115    -95.40792    -75.69036   -586.55033    6161.6246   0.93138139 
        64.5    423.51763   -96.660689   -75.693756    256.26212    6161.6246   0.93138139 
        64.6    403.83544    -95.68334   -75.690806    1430.5393    6161.6246   0.93138139 
        64.7    394.70243   -95.229996   -75.689607    238.39076    6161.6246   0.93138139 
        64.8     399.3161   -95.461183   -75.692386   -1751.1242    6161.6246   0.93138139 
        64.9    398.72677   -95.428189   -75.688568   -897.95184    6161.6246   0.93138139 
          65    394.41048   -95.217552   -75.691616   -1031.6693    6161.6246   0.93138139 
        65.1    407.64025   -95.875048   -75.694151    1718.7463    6161.6246   0.93138139 
        65.2     386.0985   -94.805061   -75.690624   -1135.1137    6161.6246   0.93138139 
        65.3    375.85874   -94.295627   -75.688125   -1579.4901    6161.6246   0.93138139 
        65.4    397.39253   -95.364598    -75.69103    385.54404    6161.6246   0.93138139 
        65.5    388.57482   -94.925755   -75.688724    88.420084    6161.6246   0.93138139 
        65.6    368.80478   -93.944116   -75.685833   -758.09455    6161.6246   0.93138139 
        65.7    409.90461   -95.983367   -75.690369   -778.79979    6161.6246   0.93138139 
        65.8    389.03679   -94.949767   -75.689864   -391.55342    6161.6246   0.93138139 
        65.9    414.74598   -96.223343   -75.690665   -1106.7172    6161.6246   0.93138139 
          66    409.25593   -95.950109   -75.689225    517.02832    6161.6246   0.93138139 
        66.1    407.27527    -95.85603   -75.693201   -1201.6528    6161.6246   0.93138139 
        66.2    390.01195   -94.997752   -75.689572    19.225841    6161.6246   0.93138139 
        66.3    401.13852   -95.551572   -75.692554     1514.146    6161.6246   0.93138139 
        66.4    366.30483   -93.825096   -75.690576   -455.54806    6161.6246   0.93138139 
        66.5    390.02586   -94.999246   -75.690378   -23.696285    6161.6246   0.93138139 
        66.6    390.14376   -95.005304   -75.690599   -856.08784    6161.6246   0.93138139 
        66.7    385.70588   -94.784972   -75.689972   -558.31363    6161.6246   0.93138139 
        66.8    393.31388    -95.16321   -75.691563    594.27807    6161.6246   0.93138139 
        66.9    375.72441   -94.292777   -75.691925    1447.0043    6161.6246   0.93138139 
          67    383.79147   -94.688552   -75.688327    104.74817    6161.6246   0.93138139 
        67.1    393.70209   -95.182686    -75.69182   -1349.3149    6161.6246   0.93138139 
        67.2    397.23096   -95.360265   -75.694697   -496.84555    6161.6246   0.93138139 
        67.3    395.31156   -95.261723   -75.691178   -483.30796    6161.6246   0.93138139 
        67.4    397.04651   -95.348421   -75.691984   -220.29799    6161.6246   0.93138139 
        67.5    387.06188   -94.853754   -75.691622    83.409829    6161.6246   0.93138139 
        67.6    396.54656   -95.324835   -75.693149   -1654.8258    6161.6246   0.93138139 
        67.7    385.79864   -94.793253   -75.693661   -2068.5975    6161.6246   0.93138139 
        67.8    390.69385   -95.034701   -75.692763   -1802.8668    6161.6246   0.93138139 
        67.9    387.64847   -94.884741    -75.69357    885.63086    6161.6246   0.93138139 
          68    385.91996   -94.796994   -75.691395   -707.49979    6161.6246   0.93138139 
        68.1    377.62778   -94.383465   -75.688385   -381.90885    6161.6246   0.93138139 
        68.2    397.69509    -95.37947   -75.690924   -1033.0461    6161.6246   0.93138139 
        68.3    404.47392   -95.717795   -75.693652   -319.51442    6161.6246   0.93138139 
        68.4    379.26922   -94.465705   -75.689362    377.88899    6161.6246   0.93138139 
        68.5    380.37284   -94.521417   -75.690437    204.30639    6161.6246   0.93138139 
        68.6    397.03422   -95.342008   -75.686179   -474.20942    6161.6246   0.93138139 
        68.7    377.87399     -94.3964    -75.68913   -773.97811    6161.6246   0.93138139 
        68.8    423.76468   -96.670462   -75.691299    143.85603    6161.6246   0.93138139 
        68.9     405.4112   -95.759614   -75.689069   -1112.5766    6161.6246   0.93138139 
          69    389.65088   -94.977197   -75.686893   -848.72312    6161.6246   0.93138139 
        69.1    386.78465   -94.837667    -75.68926    950.80733    6161.6246   0.93138139 
        69.2    392.02005   -95.096528   -75.688934   -102.15426    6161.6246   0.93138139 
        69.3    401.61749    -95.57611   -75.693379   -634.86169    6161.6246   0.93138139 
        69.4    374.82632   -94.245727   -75.689337   -73.179341    6161.6246   0.93138139 
        69.5    378.82429   -94.446009   -75.691693   -1145.9025    6161.6246   0.93138139 
        69.6    367.65187   -93.893019   -75.691812   -462.75369    6161.6246   0.93138139 
        69.7    363.20835   -93.674219   -75.692995   -1578.4709    6161.6246   0.93138139 
        69.8    395.92271    -95.29463   -75.693829   -1270.2808    6161.6246   0.93138139 
        69.9    394.54391   -95.226755   -75.694213    535.51312    6161.6246   0.93138139 
          70    391.05624   -95.052611   -75.692732    403.18154    6161.6246   0.93138139 
        70.1    410.57891   -96.019481     -75.6931    -271.0767    6161.6246   0.93138139 
        70.2    388.59974    -94.93009   -75.691825    105.54094    6161.6246   0.93138139 
        70.3    405.83498   -95.784502   -75.692978    855.41949    6161.6246   0.93138139 
        70.4    378.39122   -94.425259   -75.692383   -91.732717    6161.6246   0.93138139 
        70.5    369.10968   -93.963808    -75.69043   -459.99528    6161.6246   0.93138139 
        70.6     385.7219   -94.787271   -75.691477   -2272.0853    6161.6246   0.93138139 
        70.7    399.60382   -95.474053   -75.691013    -983.7803    6161.6246   0.93138139 
        70.8    389.08015    -94.95475   -75.692701    589.26853    6161.6246   0.93138139 
        70.9    389.08123   -94.951067   -75.688964      148.079    6161.6246   0.93138139 
          71    396.53486   -95.322872   -75.691765   -143.91666    6161.6246   0.93138139 
        71.1    381.79158   -94.589789   -75.688573   -2158.7558    6161.6246   0.93138139 
        71.2    373.69184   -94.189029   -75.688803   -1403.3473    6161.6246   0.93138139 
        71.3    386.46859   -94.824508   -75.691749   -1696.6359    6161.6246   0.93138139 
        71.4    398.27329   -95.407179   -75.690009    808.78942    6161.6246   0.93138139 
        71.5    435.88899   -97.273562   -75.694165   -914.16642    6161.6246   0.93138139 
        71.6    397.75391    -95.38045   -75.688992   -1082.4469    6161.6246   0.93138139 
        71.7    397.05881   -95.348639   -75.691593   -646.78687    6161.6246   0.93138139 
        71.8    380.92488   -94.548242   -75.689933    -1252.729    6161.6246   0.93138139 
        71.9    386.85103   -94.844839   -75.693146   -2785.5933    6161.6246   0.93138139 
          72    379.93022   -94.501201   -75.692134   -424.86881    6161.6246   0.93138139 
        72.1    395.22262   -95.257474   -75.691332   -290.66021    6161.6246   0.93138139 
        72.2     386.1222   -94.808471    -75.69286   -2140.9294    6161.6246   0.93138139 
        72.3    393.70897   -95.182665   -75.691458   -2307.5715    6161.6246   0.93138139 
        72.4    395.75201   -95.285523   -75.693172   -405.05482    6161.6246   0.93138139 
        72.5    388.44929   -94.921349   -75.690532    473.62006    6161.6246   0.93138139 
        72.6    383.95675   -94.700242   -75.691835   -478.15233    6161.6246   0.93138139 
        72.7     389.9809   -94.996295   -75.689653   -621.42542    6161.6246   0.93138139 
        72.8    402.33306   -95.607833   -75.689677   -477.64306    6161.6246   0.93138139 
        72.9    406.58787   -95.824462   -75.695664    218.96302    6161.6246   0.93138139 
          73      401.357   -95.564604   -75.694769    1090.6518    6161.6246   0.93138139 
        73.1    387.72211   -94.887136   -75.692319   -1376.7766    6161.6246   0.93138139 
        73.2    393.62471   -95.180158   -75.693123   -909.55656    6161.6246   0.93138139 
        73.3    384.71739   -94.738046   -75.691982    135.21085    6161.6246   0.93138139 
        73.4    398.02064    -95.39725   -75.692587    876.34059    6161.6246   0.93138139 
        73.5    386.81669   -94.839874   -75.689881    89.250532    6161.6246   0.93138139 
        73.6    399.69365   -95.478494   -75.691006    1332.9467    6161.6246   0.93138139 
        73.7     389.1865   -94.959079   -75.691765   -966.42581    6161.6246   0.93138139 
        73.8    386.26787   -94.812634   -75.689812   -640.58064    6161.6246   0.93138139 
        73.9    401.18811   -95.553395   -75.691922   -290.14503    6161.6246   0.93138139 
          74    382.64084   -94.633016   -75.689756   -733.48886    6161.6246   0.93138139 
        74.1    387.55038   -94.878509   -75.692194   -1259.4748    6161.6246   0.93138139 
        74.2    400.41828    -95.51752   -75.694158   -973.12205    6161.6246   0.93138139 
        74.3    404.80806   -95.734157   -75.693472    843.89005    6161.6246   0.93138139 
        74.4     389.6034   -94.979567   -75.691613    49.630004    6161.6246   0.93138139 
        74.5    386.29083   -94.816027   -75.692067   -38.215689    6161.6246   0.93138139 
        74.6    392.57904   -95.126301   -75.691034   -35.776222    6161.6246   0.93138139 
        74.7    365.55377   -93.790304   -75.692967    1711.7109    6161.6246   0.93138139 
        74.8    400.90189   -95.541899   -75.694596    1112.7912    6161.6246   0.93138139 
        74.9    385.72392   -94.784398   -75.688504   -793.10213    6161.6246   0.93138139 
          75    414.81833   -96.227881   -75.691622    981.23148    6161.6246   0.93138139 
        75.1    395.13239   -95.252765    -75.69109   -1176.2674    6161.6246   0.93138139 
        75.2    361.00479   -93.560443   -75.688311    1275.1589    6161.6246   0.93138139 
        75.3    368.39954   -93.928302    -75.69008   -145.42713    6161.6246   0.93138139 
        75.4    366.81851   -93.850636   -75.690685    10.644794    6161.6246   0.93138139 
        75.5    368.53545   -93.937033   -75.692083   -2604.3362    6161.6246   0.93138139 
        75.6    384.94431   -94.749488    -75.69219   -922.53825    6161.6246   0.93138139 
        75.7     371.9839   -94.104715   -75.689044   -610.24104    6161.6246   0.93138139 
        75.8    403.26075   -95.655107   -75.691024   -50.680195    6161.6246   0.93138139 
        75.9    415.89364   -96.283124   -75.693629   -621.22331    6161.6246   0.93138139 
          76    418.34426   -96.404028   -75.693211   -430.57972    6161.6246   0.93138139 
        76.1    405.64231   -95.776144   -75.694158    953.52293    6161.6246   0.93138139 
        76.2    405.63432   -95.774996   -75.693406   -716.17038    6161.6246   0.93138139 
        76.3    383.94949   -94.701022   -75.692975   -589.16633    6161.6246   0.93138139 
        76.4    384.61733   -94.730998   -75.689888   -671.45757    6161.6246   0.93138139 
        76.5    414.44307    -96.20991   -75.692228    196.18956    6161.6246   0.93138139 
        76.6    406.61382   -95.823371   -75.693289    725.48832    6161.6246   0.93138139 
        76.7    393.68267   -95.183841   -75.693936    1523.2733    6161.6246   0.93138139 
        76.8    427.19235   -96.844301   -75.695445   -559.82338    6161.6246   0.93138139 
        76.9      410.468   -96.009925   -75.689035   -716.40313    6161.6246   0.93138139 
          77    386.23841    -94.80963   -75.688265   -628.93831    6161.6246   0.93138139 
        77.1    403.90983   -95.687595   -75.691378   -1693.6113    6161.6246   0.93138139 
        77.2     378.8709   -94.446406   -75.689782   -1033.2557    6161.6246   0.93138139 
        77.3    400.45449    -95.51667   -75.691516   -1854.3161    6161.6246   0.93138139 
        77.4    392.52848   -95.125274    -75.69251   -127.60478    6161.6246   0.93138139 
        77.5     370.2357   -94.018157   -75.689033    -514.3811    6161.6246   0.93138139 
        77.6    385.52204   -94.778361   -75.692462   -1373.8311    6161.6246   0.93138139 
        77.7    389.90272   -94.996204   -75.693432   -532.16493    6161.6246   0.93138139 
        77.8    414.15733   -96.196375   -75.692839   -796.52773    6161.6246   0.93138139 
[...]
        79.8    386.03549   -94.803449    -75.69213   -112.02908    6161.6246   0.93138139 
        79.9    389.45043   -94.971348   -75.690967    291.46677    6161.6246   0.93138139 
          80    383.77663   -94.688563   -75.689073   -1299.6503    6161.6246   0.93138139 
        80.1    391.54919   -95.074702   -75.690419   -708.43457    6161.6246   0.93138139 
        80.2    413.17281   -96.148484   -75.693689   -698.66062    6161.6246   0.93138139 
        80.3    411.50495   -96.065134   -75.692908    119.33704    6161.6246   0.93138139 
        80.4    404.09037   -95.696265    -75.69111   -487.98741    6161.6246   0.93138139 
        80.5    399.64503   -95.475342   -75.690262   -512.13367    6161.6246   0.93138139 
        80.6    381.31833   -94.569318    -75.69153    -1308.904    6161.6246   0.93138139 
        80.7     380.2563   -94.514826   -75.689616    -2564.645    6161.6246   0.93138139 
        80.8    374.18028   -94.214393   -75.689986   -1390.2829    6161.6246   0.93138139 
        80.9    368.29928    -93.92168   -75.688422   -1941.8404    6161.6246   0.93138139 
          81    376.30604   -94.320242   -75.690596   -98.309412    6161.6246   0.93138139 
        81.1    399.75106   -95.483973   -75.693643   -58.180421    6161.6246   0.93138139 
        81.2    404.12714   -95.699135    -75.69216    271.28138    6161.6246   0.93138139 
        81.3     402.1554   -95.600438   -75.691078    793.68642    6161.6246   0.93138139 
        81.4    371.37723   -94.077284   -75.691647   -532.98277    6161.6246   0.93138139 
        81.5    362.70526   -93.647098   -75.690781   -1984.8297    6161.6246   0.93138139 
        81.6    385.95009   -94.797425   -75.690335   -858.13028    6161.6246   0.93138139 
        81.7    396.85158   -95.337844   -75.691058    433.61304    6161.6246   0.93138139 
        81.8    385.52385   -94.775136   -75.689147   -1255.5796    6161.6246   0.93138139 
        81.9    407.42166   -95.862142   -75.692066   -1893.0188    6161.6246   0.93138139 
          82    396.88833   -95.342063   -75.693457   -116.84833    6161.6246   0.93138139 
        82.1    409.46488   -95.966555   -75.695327   -1206.7786    6161.6246   0.93138139 
        82.2    392.72541   -95.138541   -75.696027   -1010.7059    6161.6246   0.93138139 
        82.3    370.97653   -94.059352   -75.693552   -800.64677    6161.6246   0.93138139 
        82.4    404.83619   -95.740486   -75.698409    147.30815    6161.6246   0.93138139 
        82.5    381.87058   -94.599568    -75.69444    922.61888    6161.6246   0.93138139 
        82.6    403.02617   -95.649194   -75.696724   -1333.0684    6161.6246   0.93138139 
        82.7    401.41436   -95.566066   -75.693391    -1383.135    6161.6246   0.93138139 
        82.8    417.86329   -96.382327   -75.695321   -205.39693    6161.6246   0.93138139 
        82.9    374.29652   -94.221997   -75.691836   -867.68888    6161.6246   0.93138139 
          83    386.89008   -94.844511   -75.690885    66.058345    6161.6246   0.93138139 
        83.1     383.0537   -94.654736   -75.691036   -1074.8058    6161.6246   0.93138139 
        83.2    400.49948   -95.519312    -75.69193   -1090.2588    6161.6246   0.93138139 
        83.3    397.35617   -95.363763   -75.691996    206.36187    6161.6246   0.93138139 
        83.4    413.25589    -96.15474   -75.695832    892.32331    6161.6246   0.93138139 
        83.5    413.54019   -96.170348   -75.697365   -547.02826    6161.6246   0.93138139 
        83.6    385.09962   -94.753921   -75.688934   -425.72559    6161.6246   0.93138139 
        83.7    396.84008   -95.338588    -75.69237    638.52768    6161.6246   0.93138139 
        83.8    413.69517   -96.173752   -75.693096    229.00785    6161.6246   0.93138139 
        83.9    399.31329   -95.458562   -75.689905   -697.59847    6161.6246   0.93138139 
          84    381.99003   -94.600426   -75.689384   -1154.6788    6161.6246   0.93138139 
        84.1    385.18574   -94.764942   -75.695691   -1440.2168    6161.6246   0.93138139 
        84.2    389.23968   -94.964601   -75.694655   -355.60864    6161.6246   0.93138139 
        84.3    387.16595   -94.860864    -75.69358     -784.777    6161.6246   0.93138139 
        84.4    373.86621   -94.198294   -75.689436   -1693.3851    6161.6246   0.93138139 
        84.5    410.79324   -96.031219   -75.694228    132.70593    6161.6246   0.93138139 
        84.6    393.84589   -95.194955    -75.69697    424.44162    6161.6246   0.93138139 
        84.7    412.08561   -96.094094   -75.693122   -205.00131    6161.6246   0.93138139 
        84.8    434.10118   -97.189302   -75.698413   -677.45704    6161.6246   0.93138139 
        84.9    423.48042    -96.66188   -75.696789    387.56059    6161.6246   0.93138139 
          85    426.47163   -96.805822   -75.692646   -1930.0398    6161.6246   0.93138139 
        85.1    405.32883   -95.762005   -75.695538   -408.50627    6161.6246   0.93138139 
        85.2    397.33206   -95.365483    -75.69491   -151.20199    6161.6246   0.93138139 
        85.3    422.70839   -96.620661   -75.693791   -928.96626    6161.6246   0.93138139 
        85.4     407.7426   -95.879942   -75.693977   -1896.1125    6161.6246   0.93138139 
        85.5    396.71258   -95.335921   -75.696016   -759.00981    6161.6246   0.93138139 
        85.6     398.4685   -95.419255    -75.69242   -2909.1089    6161.6246   0.93138139 
        85.7    376.21419   -94.318027   -75.692928    -1309.954    6161.6246   0.93138139 
        85.8     372.5025   -94.130725   -75.689379    365.72318    6161.6246   0.93138139 
        85.9    391.03255   -95.052517   -75.693811   -1115.5776    6161.6246   0.93138139 
          86    426.73631   -96.823913   -75.697634    567.33097    6161.6246   0.93138139 
        86.1     387.0692   -94.854526   -75.692032    -149.8601    6161.6246   0.93138139 
        86.2    409.99787   -95.991857   -75.694242   -2160.9954    6161.6246   0.93138139 
        86.3    390.72672    -95.03522   -75.691655   -697.84793    6161.6246   0.93138139 
        86.4     368.7146   -93.945844   -75.692024   -1240.5823    6161.6246   0.93138139 
        86.5    363.48201   -93.682364   -75.687593   -889.70125    6161.6246   0.93138139 
        86.6    392.09467   -95.102148    -75.69086   -1647.2281    6161.6246   0.93138139 
        86.7    396.79097   -95.340666    -75.69688   -960.92111    6161.6246   0.93138139 
        86.8    376.86466   -94.350753   -75.693452   -1516.4426    6161.6246   0.93138139 
        86.9    369.93396   -94.003546    -75.68936   -821.83863    6161.6246   0.93138139 
          87    356.74848   -93.353373   -75.691956   -541.90124    6161.6246   0.93138139 
        87.1     374.0283    -94.20668   -75.689798   -1013.0786    6161.6246   0.93138139 
        87.2     390.4735   -95.024922   -75.693893   -1539.0585    6161.6246   0.93138139 
        87.3    367.56302   -93.886931   -75.690122     469.2721    6161.6246   0.93138139 
        87.4     381.6334   -94.582915   -75.689529   -127.57679    6161.6246   0.93138139 
        87.5    396.51259   -95.326559   -75.696555    -1280.023    6161.6246   0.93138139 
        87.6    419.70619   -96.473378   -75.695137   -643.32465    6161.6246   0.93138139 
        87.7    377.35781   -94.375689   -75.693973    86.916857    6161.6246   0.93138139 
        87.8    396.70328   -95.334457   -75.695012    106.51439    6161.6246   0.93138139 
        87.9    382.97945   -94.654061   -75.694037   -90.293779    6161.6246   0.93138139 
          88    402.48237   -95.620526   -75.694978    1099.9734    6161.6246   0.93138139 
        88.1    392.98799   -95.148194   -75.692681    1845.2377    6161.6246   0.93138139 
        88.2    411.17589   -96.053224    -75.69729   -301.47894    6161.6246   0.93138139 
        88.3    399.67884   -95.481265    -75.69451    1132.6445    6161.6246   0.93138139 
        88.4    413.89966   -96.187587   -75.696807    -473.7708    6161.6246   0.93138139 
        88.5    403.09375   -95.648397   -75.692581   -73.589241    6161.6246   0.93138139 
        88.6    404.25661   -95.708056   -75.694672    -396.8011    6161.6246   0.93138139 
        88.7    360.53045    -93.53837    -75.68972   -700.37362    6161.6246   0.93138139 
        88.8    407.00057   -95.841968   -75.692739   -1186.2027    6161.6246   0.93138139 
        88.9    409.97909   -95.992138   -75.695452    1316.9801    6161.6246   0.93138139 
          89    426.06885   -96.790382   -75.697146    1631.4494    6161.6246   0.93138139 
        89.1    407.50363   -95.869157   -75.695023   -748.11429    6161.6246   0.93138139 
        89.2    399.35818    -95.46436   -75.693481   -1255.2843    6161.6246   0.93138139 
        89.3    395.92733   -95.297067   -75.696037   -161.65215    6161.6246   0.93138139 
        89.4    395.42027   -95.268839   -75.692912   -2138.3145    6161.6246   0.93138139 
        89.5    372.71787   -94.146501   -75.694493   -449.39816    6161.6246   0.93138139 
        89.6    359.14949   -93.467828   -75.687545   -157.81743    6161.6246   0.93138139 
        89.7    386.73007   -94.836109   -75.690404    235.42135    6161.6246   0.93138139 
        89.8    366.97877   -93.855456   -75.687572   -829.37101    6161.6246   0.93138139 
        89.9      378.296   -94.420915   -75.692753   -1585.1017    6161.6246   0.93138139 
          90    382.97726   -94.651836   -75.691921   -1495.5992    6161.6246   0.93138139 
        90.1    370.90628   -94.055128   -75.692806    -733.8773    6161.6246   0.93138139 
        90.2    389.97292   -94.997835   -75.691588   -812.89152    6161.6246   0.93138139 
        90.3    418.31642   -96.407879    -75.69844    581.16412    6161.6246   0.93138139 
        90.4    380.14685   -94.510754   -75.690962   -204.06075    6161.6246   0.93138139 
        90.5    395.98677   -95.300041   -75.696068   -971.18261    6161.6246   0.93138139 
        90.6    379.47037   -94.481083   -75.694782   -967.51576    6161.6246   0.93138139 
        90.7    413.87718   -96.185295   -75.695628    684.98103    6161.6246   0.93138139 
        90.8     404.3853   -95.714086   -75.694331    1805.0739    6161.6246   0.93138139 
        90.9    402.61617   -95.626534   -75.694363    119.98772    6161.6246   0.93138139 
          91    383.02624   -94.652589   -75.690249    885.21214    6161.6246   0.93138139 
        91.1    395.71772   -95.280843    -75.69019   -664.57534    6161.6246   0.93138139 
        91.2    377.39515   -94.373266   -75.689702     43.85332    6161.6246   0.93138139 
        91.3     387.6973   -94.886147   -75.692559   -872.35854    6161.6246   0.93138139 
        91.4    363.50031   -93.684902   -75.689224    453.94312    6161.6246   0.93138139 
        91.5    385.85604   -94.796068   -75.693633   -635.91942    6161.6246   0.93138139 
        91.6    388.77889   -94.941023   -75.693888    36.306947    6161.6246   0.93138139 
        91.7    362.09152   -93.620453    -75.69452   -1283.7875    6161.6246   0.93138139 
        91.8    374.86762   -94.253099   -75.694664   -1668.8747    6161.6246   0.93138139 
        91.9     373.9329   -94.205958   -75.693798    -466.0385    6161.6246   0.93138139 
          92    398.89377   -95.442601   -75.694712     -820.116    6161.6246   0.93138139 
        92.1    413.70699   -96.176191    -75.69495   -649.96863    6161.6246   0.93138139 
        92.2    382.35527   -94.621857   -75.692734    199.88187    6161.6246   0.93138139 
        92.3    392.03018   -95.101985    -75.69389   -784.00853    6161.6246   0.93138139 
        92.4     393.2285   -95.160872   -75.693452   -31.645128    6161.6246   0.93138139 
        92.5    377.39291   -94.375871   -75.692418   -508.35632    6161.6246   0.93138139 
        92.6    388.16513   -94.912845   -75.696095    211.86119    6161.6246   0.93138139 
        92.7    382.81886   -94.642565   -75.690491   -197.37969    6161.6246   0.93138139 
        92.8    397.70117   -95.381994   -75.693147   -267.15858    6161.6246   0.93138139 
        92.9    379.97451    -94.50526   -75.694001    40.211716    6161.6246   0.93138139 
          93    394.19113    -95.20933   -75.694253    170.99782    6161.6246   0.93138139 
        93.1     384.0235   -94.700528   -75.688817   -1011.1946    6161.6246   0.93138139 
        93.2    400.35484   -95.513234   -75.693013     417.0889    6161.6246   0.93138139 
        93.3     389.8515   -94.992275   -75.692038    38.374162    6161.6246   0.93138139 
        93.4    404.37622   -95.711735   -75.692429   -919.12348    6161.6246   0.93138139 
        93.5    404.64842   -95.725675   -75.692893   -152.39441    6161.6246   0.93138139 
        93.6    389.25462   -94.967195   -75.696508    97.274979    6161.6246   0.93138139 
        93.7    390.37715   -95.017634   -75.691375    1148.8867    6161.6246   0.93138139 
        93.8    400.40364   -95.519296   -75.696659   -1070.4198    6161.6246   0.93138139 
        93.9    393.76014   -95.186172   -75.692433   -1942.7076    6161.6246   0.93138139 
          94    387.74997    -94.88842   -75.692224   -770.34243    6161.6246   0.93138139 
        94.1    383.80537   -94.693708   -75.692796   -1309.7168    6161.6246   0.93138139 
        94.2    394.07259   -95.201926   -75.692718   -1132.5114    6161.6246   0.93138139 
        94.3    378.45068   -94.430083   -75.694263    -230.3987    6161.6246   0.93138139 
        94.4    394.46327    -95.22234   -75.693791   -2514.0321    6161.6246   0.93138139 
        94.5    383.51472   -94.679518   -75.692994   -2983.9248    6161.6246   0.93138139 
        94.6    392.28265   -95.116422   -75.695828   -677.15263    6161.6246   0.93138139 
        94.7     402.5026   -95.620054   -75.693504   -1102.6632    6161.6246   0.93138139 
        94.8    410.08193   -95.997221   -75.695444   -1980.6672    6161.6246   0.93138139 
        94.9    411.27873   -96.054334   -75.693308   -1056.3856    6161.6246   0.93138139 
          95    384.81276   -94.745696   -75.694911   -326.73965    6161.6246   0.93138139 
        95.1    368.45201   -93.931346   -75.690526     421.1337    6161.6246   0.93138139 
        95.2    404.36915   -95.712355   -75.693399    656.59824    6161.6246   0.93138139 
        95.3    410.05937   -95.998382   -75.697723   -2345.0827    6161.6246   0.93138139 
        95.4    402.61225   -95.626845   -75.694867   -923.28825    6161.6246   0.93138139 
        95.5    377.85838    -94.39776   -75.691263   -166.68895    6161.6246   0.93138139 
        95.6    386.79887   -94.839462   -75.690351    514.35406    6161.6246   0.93138139 
        95.7     379.6802   -94.491625   -75.694936   -15.356115    6161.6246   0.93138139 
        95.8    400.54953   -95.527059     -75.6972   -765.57451    6161.6246   0.93138139 
        95.9    376.32231   -94.322539   -75.692088   -265.74704    6161.6246   0.93138139 
          96    387.70459   -94.886627   -75.692677    259.59089    6161.6246   0.93138139 
        96.1    379.87653   -94.498803   -75.692394   -254.66256    6161.6246   0.93138139 
        96.2    411.75479   -96.079646   -75.695052    420.95788    6161.6246   0.93138139 
        96.3     399.6822   -95.483526   -75.696605   -349.72805    6161.6246   0.93138139 
        96.4    406.91746   -95.841261   -75.696147   -1099.6201    6161.6246   0.93138139 
        96.5    409.04543   -95.946166   -75.695703    341.44295    6161.6246   0.93138139 
        96.6    372.25779   -94.121235   -75.692004   -1171.9867    6161.6246   0.93138139 
        96.7    389.05452    -94.95834    -75.69756   -635.09709    6161.6246   0.93138139 
        96.8      393.216   -95.160187   -75.693386    1187.5572    6161.6246   0.93138139 
        96.9    379.19482   -94.466773   -75.694113    195.53021    6161.6246   0.93138139 
          97    373.52756   -94.181294   -75.689201    62.154978    6161.6246   0.93138139 
        97.1    372.60656   -94.139396   -75.692898    -150.2821    6161.6246   0.93138139 
        97.2    387.62717   -94.884334   -75.694217    569.76591    6161.6246   0.93138139 
        97.3    370.82174   -94.050919   -75.692783   -1593.3483    6161.6246   0.93138139 
        97.4    383.44537   -94.675947   -75.692857    73.271363    6161.6246   0.93138139 
        97.5    384.31478   -94.721847   -75.695715    508.86726    6161.6246   0.93138139 
        97.6    379.62454   -94.486734     -75.6928     1616.337    6161.6246   0.93138139 
        97.7    409.85416   -95.985207   -75.694707   -670.74659    6161.6246   0.93138139 
        97.8    364.70701   -93.747835   -75.692418    1093.0402    6161.6246   0.93138139 
        97.9    361.73125   -93.602535   -75.694437   -1976.8231    6161.6246   0.93138139 
          98    393.30265   -95.165009   -75.693918   -800.89303    6161.6246   0.93138139 
        98.1    398.70945   -95.432008   -75.693244    182.05375    6161.6246   0.93138139 
        98.2    394.26706   -95.214387   -75.695552      341.414    6161.6246   0.93138139 
        98.3    391.91034   -95.097001   -75.694838   -464.27457    6161.6246   0.93138139 
        98.4    405.75894   -95.784224   -75.696465     263.4892    6161.6246   0.93138139 
        98.5    387.77584   -94.891078   -75.693601   -1902.2723    6161.6246   0.93138139 
        98.6    406.24022   -95.811328   -75.699742   -7.9721282    6161.6246   0.93138139 
        98.7    389.84201   -94.992863   -75.693097   -2515.0364    6161.6246   0.93138139 
        98.8    358.91451   -93.460413   -75.691764   -1534.7454    6161.6246   0.93138139 
        98.9    388.57426   -94.932834    -75.69583   -933.51069    6161.6246   0.93138139 
          99    412.72496   -96.130073   -75.697448   -9.0927872    6161.6246   0.93138139 
        99.1    373.78806   -94.196858   -75.691868    703.99036    6161.6246   0.93138139 
        99.2    375.39767   -94.279334   -75.694658    821.03061    6161.6246   0.93138139 
        99.3    384.96003   -94.754073   -75.695997   -850.74061    6161.6246   0.93138139 
        99.4    375.68463   -94.291143   -75.692261   -1007.0716    6161.6246   0.93138139 
        99.5    387.19268   -94.861912   -75.693305    913.37901    6161.6246   0.93138139 
        99.6    387.78239   -94.891087   -75.693285   -627.64745    6161.6246   0.93138139 
        99.7     383.5684   -94.683764   -75.694583   -1628.3629    6161.6246   0.93138139 
        99.8     397.0853   -95.353946   -75.695589   -247.78014    6161.6246   0.93138139 
        99.9    407.38403   -95.862315   -75.694102   -908.26935    6161.6246   0.93138139 
         100    380.27162   -94.519093   -75.693125    1480.2192    6161.6246   0.93138139 
Loop time of 172.06 on 4 procs for 100000 steps with 576 atoms

Performance: 50.215 ns/day, 0.478 hours/ns, 581.191 timesteps/s
95.0% CPU use with 4 MPI tasks x 1 OpenMP threads

MPI task timing breakdown:
Section |  min time  |  avg time  |  max time  |%varavg| %total
---------------------------------------------------------------
Pair    | 88.426     | 94.733     | 100.75     |  57.2 | 55.06
Bond    | 0.013411   | 0.013721   | 0.014147   |   0.2 |  0.01
Kspace  | 47.932     | 53.903     | 60.217     |  75.8 | 31.33
Neigh   | 12.453     | 12.455     | 12.456     |   0.0 |  7.24
Comm    | 6.2166     | 6.2774     | 6.3248     |   1.6 |  3.65
Output  | 0.058781   | 0.060551   | 0.065573   |   1.2 |  0.04
Modify  | 4.066      | 4.0775     | 4.0858     |   0.4 |  2.37
Other   |            | 0.5405     |            |       |  0.31

Nlocal:            144 ave         148 max         142 min
Histogram: 1 2 0 0 0 0 0 0 0 1
Nghost:         3687.5 ave        3711 max        3667 min
Histogram: 2 0 0 0 0 0 0 0 1 1
Neighs:        40767.2 ave       43685 max       37488 min
Histogram: 1 0 0 1 0 0 0 0 1 1

Total # of neighbors = 163069
Ave neighs/atom = 283.1059
Ave special neighs/atom = 2
Neighbor list builds = 9864
Dangerous builds = 8629


Total wall time: 0:02:52
